LAMMPS data file via write_data, version 29 Aug 2024, timestep = 1200064, units = nano

18750 atoms
1 atom types
36330 bonds
1 bond types
18500 angles
1 angle types

-30 30 xlo xhi
-30 30 ylo yhi
-30 30 zlo zhi

Masses

1 9.42478

Pair Coeffs # lj/cut

1 1 1

Bond Coeffs # harmonic

1 22 1.25

Angle Coeffs # harmonic

1 5.52 180

Atoms # angle

5751 1 1 -27.150482733713353 -27.222798902864596 -27.583549089209143 0 0 0
9359 1 1 -24.631355569135554 -27.322925927826173 -27.6069129990295 0 0 0
5750 1 1 -26.312912290538108 -28.655999046022835 -27.532374130009593 0 0 0
7481 1 1 -25.730497050030582 -29.722699215950158 -28.319277624549027 0 1 0
7480 1 1 -25.117061810478578 -29.37426714554497 -27.275898798909346 0 1 0
6149 1 1 -23.600389330239324 -26.942017414582775 -28.9120211691412 0 0 1
6150 1 1 -23.763421786727225 -28.13178772721422 -28.216240818835036 0 0 1
12140 1 1 -22.880661100869563 -29.331587191198675 -27.96921510563069 0 0 1
12141 1 1 -22.16079479810056 -28.50930274380782 -29.566837864047788 0 0 1
12142 1 1 -21.17986021681503 -27.36415310552515 29.862669600259444 0 0 0
14704 1 1 -17.148198362756695 -28.297914859316027 -28.212113224771105 0 0 1
14705 1 1 -16.74058963520865 -26.8737942767613 -29.437510038012 0 0 1
15158 1 1 -4.797756649721254 -27.418372784988104 -28.214428214001472 0 0 1
15435 1 1 -2.399296512347029 -27.670220503875147 -27.69616046964307 0 0 0
15159 1 1 -3.2843609308781305 -28.141856566595507 -28.044710208075536 0 0 1
15436 1 1 -2.648656531979524 -28.88362558083457 -27.135502469028953 0 0 0
15160 1 1 -1.6218347209366655 -28.39148693483176 -27.90408995286115 0 0 1
16800 1 1 -0.8483547551532451 -27.612469705021446 -28.34476747980941 0 1 0
15161 1 1 0.11824516770191583 -28.187541941786055 -27.957458915006306 0 0 1
16799 1 1 0.7068374045631417 -27.891789343747362 -28.908529851446918 0 1 0
15162 1 1 1.822226818139425 -27.714682078085648 -28.141833207540238 0 0 1
16798 1 1 1.9852121098600721 -28.355567364991167 -29.641364505393614 0 1 0
15137 1 1 6.727280189922349 -27.63080909635778 -28.096759212254636 0 0 0
15138 1 1 8.327210546945487 -28.837931942669623 -28.7433599703394 0 0 0
18306 1 1 9.878638913202815 -29.14090544893154 -29.21295840351528 0 0 0
18307 1 1 9.136480325915459 -29.64024133560461 -28.043702604293788 0 0 0
15139 1 1 9.245209069865298 -29.948011101157352 -29.642135694049685 0 0 0
1345 1 1 19.45041003721592 -27.689773314930925 -27.334244309173133 -1 1 0
1346 1 1 18.363185831051023 -27.405810882935036 -28.394671856809016 -1 1 0
6316 1 1 20.17709026691477 -28.47657547584 -27.650620276419083 -1 0 0
6315 1 1 20.589230864335956 -28.29003807546223 -29.152443136836865 -1 0 0
1668 1 1 18.602003385702417 -26.85377279992168 -29.91449339888932 -1 1 1
17984 1 1 19.77302845910307 -29.795664086171744 29.721505691776734 0 0 0
5752 1 1 -28.606884846724196 -26.40000727860632 -27.791169286520798 0 0 0
7344 1 1 -28.219358418348474 -25.22102992875069 -28.38835924248347 0 1 0
7343 1 1 -29.295921191444588 -25.457526477604404 -27.47969709894637 0 1 0
7718 1 1 -27.40983812158523 -25.407503154315606 -27.239401333293376 0 1 0
7345 1 1 -27.24740364999605 -24.677402641753975 -29.476608542270384 0 1 0
7717 1 1 -26.316464574742355 -24.62513589161578 -28.2252613369651 0 1 0
9358 1 1 -26.098988753333014 -26.23528134166428 -27.055922647138786 0 0 0
8990 1 1 -24.389908142265558 -24.344565787889216 -28.061385813262156 0 0 0
7716 1 1 -25.33739473633914 -23.860628073763415 -28.107132901903533 0 1 0
7348 1 1 -24.143146164358605 -23.74271015418729 -29.192282473184083 0 1 0
7347 1 1 -25.273416419389484 -23.965462492890357 -29.194346322809572 0 1 0
8989 1 1 -23.25552587796856 -24.56396286633178 -29.544537853004794 0 0 0
6148 1 1 -22.591009779824244 -26.04460554876857 -29.701327195159486 0 0 1
6147 1 1 -20.94708604711474 -25.96646220498805 29.701860043489557 0 0 0
12143 1 1 -19.71726473510566 -26.531463682829852 29.710998740198754 0 0 0
12282 1 1 -17.391108345968107 -23.517929701534687 -28.11478414298496 0 0 1
11860 1 1 -16.69686009607994 -24.28482475930074 -29.100519136636702 0 0 0
11948 1 1 -15.247970086660205 -24.68097068292224 -29.51479487460717 0 0 0
11949 1 1 -15.382199151962746 -24.12747054499751 -27.63240672839151 0 0 0
14706 1 1 -15.400977878330092 -25.995154536312214 29.71416943732042 0 0 0
11861 1 1 -16.38478778041937 -23.814445481945572 -28.026244388777172 0 0 0
14913 1 1 -9.048026669833968 -24.53046651544338 -29.502092492672986 0 0 0
14914 1 1 -8.446472041790342 -24.36992482516814 -27.785123611429828 0 0 0
15156 1 1 -7.835991259300675 -25.522362239429818 -29.142492746113646 0 0 1
15155 1 1 -8.451439442346441 -24.864224834540963 29.68095895989192 0 0 0
15157 1 1 -6.236805099140136 -26.553711307365965 -28.37329287090669 0 0 1
15434 1 1 -3.750645288977402 -27.125006657550383 -27.65585712291464 0 0 0
15163 1 1 3.4634540884162948 -26.79872985712125 -27.600821136400956 0 0 1
15164 1 1 4.364234238152049 -25.830226404574923 -28.079742232997784 0 0 1
15165 1 1 4.4902926819922335 -24.38726004998997 -28.730135794074922 0 0 1
15136 1 1 5.764679870834032 -26.576943924355604 -27.615228709918465 0 0 0
1484 1 1 5.3527596145971295 -26.978415835646206 -28.430459585212464 -1 1 0
1485 1 1 5.433617743875108 -25.927184944135828 -29.39632299336953 -1 1 0
18289 1 1 13.410580605633372 -26.3962118830118 -28.846718919725802 0 0 1
1673 1 1 13.276134818928522 -24.984799777320188 -28.107408888606976 -1 1 1
18290 1 1 13.264213764634459 -25.82518783125376 -27.48018844769094 0 0 1
1674 1 1 12.385542508763685 -25.58935418197111 -28.919577239164386 -1 1 1
18450 1 1 12.95075854952526 -25.05833640389587 -29.65885704512046 0 0 1
1349 1 1 14.472394005626262 -26.237892541911695 -27.720470917992145 -1 1 0
1672 1 1 14.372726684503089 -25.127303684006616 -27.608066923717324 -1 1 1
1347 1 1 16.950412514392035 -27.182272373597854 -28.56348450837478 -1 1 0
1348 1 1 15.651173285909012 -26.722811670889733 -28.327043382412757 -1 1 0
1670 1 1 16.732347001690236 -26.04888078362749 -28.211560956944084 -1 1 1
1671 1 1 15.587700499916336 -25.594693965960374 -27.73237060489713 -1 1 1
1669 1 1 17.812157661012204 -26.484236114581442 -28.92552714139339 -1 1 1
6165 1 1 22.800122085042968 -25.039885523813453 -29.475355728353527 -1 0 0
6159 1 1 22.622028380241282 -26.334669904644173 -29.843540409788346 -1 0 0
6166 1 1 23.609536216442184 -24.78022390401687 -27.97119778651792 -1 0 0
6158 1 1 23.566803115267042 -25.74343512983594 -28.742555482789466 -1 0 0
5757 1 1 23.854423104225045 -25.759245938403037 -26.947489735922968 -1 0 0
3296 1 1 25.42206363895785 -24.43315036338132 -29.211610968636432 -1 0 0
6157 1 1 24.032600825993224 -24.934807097214318 -29.660338216940033 -1 0 0
5756 1 1 25.254289175805408 -25.117026227410584 -27.114361217261862 -1 0 0
5755 1 1 26.682588118719202 -24.952219398615266 -27.36009357883319 -1 0 0
3301 1 1 26.93844090497249 -24.621914324009815 -28.466830530362582 -1 0 1
3302 1 1 26.435605919181477 -24.55194876940431 29.980204613920098 -1 0 0
5753 1 1 29.758510457246313 -25.922798028028875 -27.831150062896082 -1 0 0
5754 1 1 28.25786443200884 -25.377049285023404 -27.592943611696302 -1 0 0
7346 1 1 -26.288729387711573 -24.073196286458238 -29.533224169228376 0 1 0
7715 1 1 -24.708755264460738 -23.13333299445819 -27.465447868226107 0 1 0
7714 1 1 -24.019170916079034 -21.85250861669236 -27.106168871908494 0 1 0
8976 1 1 -25.51230356204295 -21.739674500146297 -29.63679638778128 0 0 0
9431 1 1 -24.043050436718772 -20.858933712935045 -28.028501310110542 0 0 0
8975 1 1 -24.8715135475146 -20.698133442495443 -28.73431263943651 0 0 0
8977 1 1 -25.670114143955928 -22.79915821240514 29.73769058902319 0 0 -1
9433 1 1 -21.906584611923915 -21.74696146279031 -28.92558101624506 0 0 0
9432 1 1 -22.995428814559318 -21.41229353445229 -27.74127247544998 0 0 0
9428 1 1 -21.31215851776627 -20.6392495783522 -28.342917634286792 0 0 0
12281 1 1 -16.901272244552377 -23.242672806463897 -29.370802459733085 0 0 1
9289 1 1 -15.784483328090973 -22.626654237789115 -27.671895372903656 0 0 0
12298 1 1 -14.805352617150751 -21.144140344354458 -29.138241131437688 0 0 1
9288 1 1 -16.95880218266012 -22.78456357859988 -27.22033854056734 0 0 0
9290 1 1 -15.425919233417819 -21.56544459064476 -27.046617384272615 0 0 0
18481 1 1 3.587431430907256 -23.439423484469106 -28.676730510387046 0 0 0
18480 1 1 3.8556665866842477 -23.1744444256419 -27.28936589925605 0 0 0
15167 1 1 3.7390167483613146 -22.054545759735657 -27.879128750007375 0 0 1
15148 1 1 3.9529200078310343 -21.775964224539962 -29.030802210586334 0 0 0
15166 1 1 4.497644192958984 -23.005189105433956 -28.48860933696896 0 0 1
15168 1 1 3.0032746376520496 -20.80022703956193 -27.05959923145038 0 0 1
18495 1 1 11.154594333407557 -20.80445382184443 -29.82319497905973 0 0 0
18497 1 1 12.170661174691027 -22.186475380626227 -27.358631031558968 0 0 0
18496 1 1 11.636620371884858 -20.95227199414604 -28.293076908776683 0 0 0
2980 1 1 18.57295245137358 -21.50154545350668 -28.315867572061986 -1 0 0
458 1 1 18.051089865147436 -20.93033863583571 -29.248190869482844 -1 0 0
2979 1 1 19.224925446528452 -20.664786130754145 -29.73186313235896 -1 0 0
459 1 1 17.666812670003765 -21.3214232288736 -27.495648173082 -1 0 0
3295 1 1 25.792074382767975 -23.787059181037293 -27.699029919623133 -1 0 0
8974 1 1 -24.235295742663276 -19.905809754959577 -27.622037418274626 0 0 0
9298 1 1 -24.317902431226138 -19.57515335679703 -28.995754447281726 0 0 0
9430 1 1 -23.628108917648763 -20.365182890563823 -28.87530324831652 0 0 0
9429 1 1 -22.384407918607298 -20.49790838358711 -28.978560477605956 0 0 0
9297 1 1 -23.042248573464505 -19.950412469925546 -28.061370430806402 0 0 0
9427 1 1 -20.38124586878411 -20.43849068933657 -27.383372036608638 0 0 0
12297 1 1 -14.96279359347307 -20.60241885733537 -27.660050937544977 0 0 1
11939 1 1 -14.166035719252706 -20.405482615226795 -26.904760730698584 0 0 0
11940 1 1 -13.970111334300393 -20.374802439248334 -28.350216832185215 0 0 0
11941 1 1 -13.426931232436665 -20.29210636163776 -29.645924760787672 0 0 0
9591 1 1 -13.25486706774855 -19.446290829707394 -27.239138103323388 0 0 0
9592 1 1 -12.838971376769928 -19.6147545406565 -29.045268090065683 0 0 0
17865 1 1 -1.5451882496461373 -17.174419171328964 -27.687509378533733 0 0 0
15171 1 1 0.7023946856164908 -18.252182859530702 -27.73324144568909 0 0 1
15172 1 1 -0.4562805724682147 -17.90050321337785 -28.6587715291351 0 0 1
17866 1 1 -0.32565388629501935 -18.104260493413918 -27.278294232325948 0 0 0
15170 1 1 1.7652950872406596 -18.77027067758146 -27.197895529673456 0 0 1
15149 1 1 3.4319797898646534 -20.618909863308886 -28.2788250541381 0 0 0
15150 1 1 2.9407120679564933 -19.37702105376601 -27.694371005499022 0 0 0
18020 1 1 11.26892150406545 -19.77636140411726 -28.863853961412318 0 0 0
2945 1 1 12.65900011530591 -19.057981461120143 -28.537252664999496 -1 0 0
18021 1 1 11.680905237488531 -19.6746045300904 -27.286559935625615 0 0 0
2946 1 1 11.970279542802448 -19.54876722265795 -29.77485554248022 -1 0 0
151 1 1 12.298169702452299 -18.565562814865768 -27.295812159023463 -1 0 0
2958 1 1 22.829232585308453 -19.127950001528863 -28.984133786581666 -1 0 0
2959 1 1 23.608468363771433 -19.236441807373836 -27.79706153365313 -1 0 0
2401 1 1 23.621071355207846 -17.700970179581955 -28.98830685925865 -1 0 0
2975 1 1 24.023989506456747 -19.14987762339918 -28.883397292179914 -1 0 0
2974 1 1 24.576287686762537 -20.09936111967764 -27.679291895813694 -1 0 0
2707 1 1 25.68251889327371 -18.380272945855932 -27.664125101724107 -1 0 0
2708 1 1 26.562170172499894 -19.387257107792962 -26.873674609781816 -1 0 0
17864 1 1 -2.7845639734207204 -16.3051164318745 -27.834790341187436 0 0 0
15683 1 1 -2.691422782602279 -15.266207259697014 -27.856263414458255 0 0 0
15684 1 1 -3.0830548646278166 -15.048552129798685 -29.154466330466413 0 0 0
17863 1 1 -3.611981632393665 -15.384562714940925 -26.855119804735946 0 0 0
12908 1 1 3.8939770745139484 -16.767598402035322 -27.47313136452144 0 0 1
18570 1 1 3.8922290496866774 -14.707615000383703 -27.96990499501817 0 0 0
12909 1 1 4.637679680604221 -15.80438626424698 -28.50678003060527 0 0 1
12910 1 1 4.909631005303482 -14.938879015482213 -29.436077474684595 0 0 1
1494 1 1 6.258073852643878 -15.75608326541638 -29.525694766765636 -1 1 0
1495 1 1 7.469856558716667 -16.028748367743088 -28.60407093535038 -1 1 0
14540 1 1 7.898931083236681 -16.26004399531368 -29.849289043745657 0 0 1
1496 1 1 8.590642650637786 -16.37065745119939 -27.62941115204531 -1 1 0
14541 1 1 8.698171264510915 -15.79026576024068 -28.916631466030452 0 0 1
5692 1 1 9.512564376531254 -15.922896675433515 -28.07447361307993 -1 0 0
14542 1 1 9.9663457716697 -15.326554190306776 -29.04199598505665 0 0 1
5693 1 1 9.259896976856849 -16.502978572294555 -29.422932433995843 -1 0 0
14543 1 1 11.300491900816741 -14.820718498367041 -29.396447386239533 0 0 1
14544 1 1 12.336773903169874 -14.85035918371378 -29.579254788545693 0 0 1
2402 1 1 22.771052158814424 -16.61337307160879 -28.412799897316923 -1 0 0
355 1 1 22.341859378398933 -15.729010381547415 -29.54985284191836 -1 0 1
2403 1 1 22.004636269284134 -16.079789766383005 -26.787498107616674 -1 0 0
2706 1 1 25.136966521597717 -17.15810523032167 -28.875734048051463 -1 0 0
14894 1 1 -7.8619233444236585 -11.890809426714414 -29.577117743579198 0 0 0
14893 1 1 -6.568758222062733 -12.531544279959535 -28.864672596745212 0 0 0
15687 1 1 -5.849419141863326 -11.96946304510366 -27.9613738118314 0 0 0
14892 1 1 -5.755243318050685 -13.193118124884608 -27.882811228556324 0 0 0
15686 1 1 -5.193366759937585 -12.949142270555878 -29.122202831181095 0 0 0
18569 1 1 3.624838451910871 -13.746644205227488 -28.944425610663565 0 0 0
18568 1 1 3.2996644118006984 -12.38896533042808 -28.868614444496565 0 0 0
15736 1 1 4.211828295278452 -11.821875321353907 -28.20809603778496 0 0 0
15735 1 1 4.391896422258781 -12.992898902765633 -28.95337597795017 0 0 0
15734 1 1 4.38834415352108 -13.716713261418672 -27.95505440313727 0 0 0
18567 1 1 3.0308187198491696 -11.231444132521286 -28.105610621540798 0 0 0
603 1 1 12.086234342050888 -11.892192168211842 -29.53377267041995 -1 0 0
581 1 1 12.264247888236088 -11.445319317595077 -28.104172528142584 -1 0 1
5578 1 1 -28.160700460511386 -9.225857785815537 -29.60830612873091 0 0 1
6449 1 1 -26.790665831560318 -9.49555259593301 -29.8626502757905 0 0 1
5579 1 1 -27.009492210912274 -7.8988672124885895 -28.329301594985445 0 0 1
6450 1 1 -26.092170149833198 -8.698852936960508 -28.16353087632098 0 0 1
6620 1 1 -25.388920756474544 -8.177548896006538 -27.094535857231598 0 0 0
14985 1 1 -11.283911282616433 -8.859219542044753 -28.911351944509768 0 0 0
14986 1 1 -10.072337715930512 -9.834144120763934 -29.463658171404237 0 0 0
15004 1 1 -5.334356267716716 -9.971026387717963 -29.248895682666188 0 0 1
17838 1 1 -6.0250547923705104 -8.002268143537743 -27.34260850790854 0 0 1
15005 1 1 -4.627533188495305 -9.030817458638502 -28.810868346415116 0 0 1
15517 1 1 -4.667929980207488 -9.965268383208446 -27.995840271650206 0 0 0
17839 1 1 -4.491203068139434 -8.614013417782688 -27.792464306979923 0 0 1
15518 1 1 -4.17345499782231 -10.052409124291973 -29.3441322899152 0 0 0
14998 1 1 0.04089386667058719 -9.19773422357453 -27.950431427730347 0 0 0
15523 1 1 0.7180589085642072 -8.853252432408146 -28.898281788963185 0 0 0
14997 1 1 -1.1610559055093885 -8.468551316091416 -28.382630057654247 0 0 0
15524 1 1 1.2183591257468918 -8.810077375510149 -27.375322712101905 0 0 0
14999 1 1 1.3839016116025114 -9.68219494824757 -28.004641742153623 0 0 0
18566 1 1 2.9862253165612422 -10.856888487971963 -26.96023051677492 0 0 0
15000 1 1 2.7966828757069755 -9.812395921114815 -27.619871276520886 0 0 0
15737 1 1 4.112243732146337 -11.027403478243109 -27.002654287692224 0 0 0
15739 1 1 3.537971081795151 -8.644902344493303 -26.797322922189462 0 0 0
580 1 1 11.335588498827615 -10.94714320681302 -29.208089149718244 -1 0 1
582 1 1 13.327459908756135 -11.034184192559932 -27.650376896805327 -1 0 1
5548 1 1 13.406657005374006 -10.151883865380698 -26.93519068564286 -1 0 0
5549 1 1 14.092863688889306 -8.809833820701558 -27.448783307747746 -1 0 0
583 1 1 14.19009086439341 -9.949064368615666 -27.860550138419086 -1 0 1
604 1 1 12.036310297901801 -10.233954344498477 -29.799867907763975 -1 0 0
584 1 1 14.806268313145797 -8.82257041080043 -28.443886883116104 -1 0 1
8498 1 1 -27.590937051785566 -5.821514825279589 -28.260122464982846 0 0 0
8497 1 1 -27.354192282745426 -5.139613796621101 -29.518386821309754 0 0 0
5227 1 1 -27.32538628657798 -4.813018321659674 -28.106702787117754 0 0 0
5226 1 1 -26.826644242136 -6.367323999730114 -27.70789611060546 0 0 0
5580 1 1 -25.826384743444365 -7.123899987229966 -27.79791680716486 0 0 1
5581 1 1 -24.680478305807018 -5.9939483687674775 -27.697926879369174 0 0 1
5582 1 1 -23.715463011184667 -5.050113112739062 -28.03152014074884 0 0 1
11256 1 1 -16.75304644776241 -5.754063585435386 -29.081888844080076 0 0 1
11255 1 1 -15.789995860129363 -5.876937575035605 -27.561177913110438 0 0 1
9822 1 1 -15.634403882897049 -5.387866526559574 -28.755723461236208 0 0 0
9823 1 1 -14.427151845555901 -5.906545682807686 -27.7570300644691 0 0 0
14984 1 1 -12.353198718748716 -7.790461491485449 -28.255556042093872 0 0 0
14983 1 1 -12.870435334731377 -6.50714336206883 -27.445458550674367 0 0 0
14982 1 1 -11.389884774095787 -6.026818776410209 -27.09642576785918 0 0 0
14425 1 1 -9.668794395343754 -6.70882037517652 -28.212898594150627 0 0 0
14980 1 1 -8.340045188788643 -6.234878070100451 -27.599247107506265 0 0 0
17856 1 1 -8.404781859190386 -7.338188462468975 -28.74152494393865 0 0 0
14426 1 1 -8.808005014361528 -6.050322821535726 -29.504918108841927 0 0 0
17855 1 1 -9.713366408720391 -7.700142987615272 -29.632474739553334 0 0 0
14981 1 1 -9.84123417467033 -5.9835906494641335 -27.240093558018764 0 0 0
12887 1 1 -7.601915063387233 -5.0462721038468255 -29.576467833285626 0 0 0
17857 1 1 -7.363481681285642 -8.008352681193223 -27.71432648346258 0 0 0
14979 1 1 -7.255066409632991 -6.840745674225572 -27.97117376778808 0 0 0
12888 1 1 -6.445277815070514 -5.583751355152258 -29.11527330046856 0 0 0
17836 1 1 -7.448864016839456 -5.635255507891328 -26.812779385054178 0 0 1
12889 1 1 -5.210712885976936 -4.824510365871202 -29.75360684479813 0 0 0
17837 1 1 -7.07515814120777 -6.856307174321092 -26.940951306688895 0 0 1
17840 1 1 -2.8849248808559875 -8.223719379935565 -28.347113082071594 0 0 1
15006 1 1 -4.058621244662853 -8.081442520558518 -29.326916782464455 0 0 1
17841 1 1 -1.6404661727474932 -7.435025382702805 -28.45762712966778 0 0 1
14996 1 1 -0.9365688193401919 -7.71883482891586 -29.450337059390666 0 0 0
17842 1 1 -0.2941759239493593 -6.849872052789976 -28.405948898139346 0 0 1
18719 1 1 -0.22781668479694364 -6.026733568561128 -27.187161239045125 0 0 0
17843 1 1 1.2152927038358161 -6.485018203230247 -28.274289614001486 0 0 1
18718 1 1 1.201521820278028 -6.945751483219502 -27.091035264831678 0 0 0
17844 1 1 2.326377586468809 -6.6634453056148315 -27.972324067197246 0 0 1
14773 1 1 2.684869294091145 -5.616911239405116 -28.65758091149917 0 0 1
17845 1 1 3.5461557228324816 -6.465149210314678 -28.173728499994063 0 0 1
17846 1 1 3.8569458159727916 -5.368765485682269 -28.724667157337453 0 0 1
14772 1 1 3.437986539225574 -6.312139655269511 -29.620241623326162 0 0 1
15740 1 1 4.4893856562071806 -7.437262117020712 -27.257265871847903 0 0 0
15741 1 1 6.112763354864335 -7.0514840483343235 -27.016076289899747 0 0 0
607 1 1 10.271385690950293 -6.723659578264331 -28.77760876018623 -1 0 0
608 1 1 9.313256069609372 -6.849992030248047 -27.108546853559737 -1 0 0
606 1 1 11.099906023460116 -7.390331462439897 -29.689077777200627 -1 0 0
585 1 1 15.456284153581775 -8.17205037006507 -29.382946066640343 -1 0 1
5550 1 1 14.88447502570809 -7.570218006036442 -28.070482682837287 -1 0 0
5388 1 1 15.48313886766035 -6.733070540902312 -29.13419854926621 -1 0 0
5387 1 1 15.104499881181724 -5.967623578418831 -27.597812029668248 -1 0 0
8376 1 1 -28.853111807169384 -4.2186795258393515 -28.1823290768167 0 0 1
5228 1 1 -28.132021856874186 -3.4532311391201844 -28.49585408351172 0 0 0
5229 1 1 -29.166789966297312 -2.5059133057321277 -28.48836889653545 0 0 0
8513 1 1 -28.822232004915836 -3.1098118271724764 -27.42424426475161 0 0 0
9762 1 1 -28.446886503971555 -2.5188436592318326 -29.630299956223123 0 0 0
8512 1 1 -28.277059962078052 -4.32484916007386 -27.07985150354833 0 0 0
8514 1 1 -29.472303568391386 -1.7636477019806198 -27.328822788747058 0 0 0
8375 1 1 -28.480421507073792 -4.109469797950514 29.932373866589703 0 0 0
9765 1 1 -25.482928756258154 -4.471157220480378 -29.485462467190086 0 0 0
9766 1 1 -24.46091079744915 -4.3992109014579714 -28.335293062881235 0 0 0
6465 1 1 -25.261321021618954 -3.0939579558254335 -28.346011879200983 0 0 0
5583 1 1 -24.391293455405297 -4.154729950048508 -29.35408613914516 0 0 1
11384 1 1 -22.249545993282698 -5.06072360106601 -27.818736825905454 0 0 0
9767 1 1 -22.832571093183947 -4.171942098474179 -27.68566437835436 0 0 0
11385 1 1 -21.141574209503105 -4.399827194951405 -28.780366744974135 0 0 0
9818 1 1 -19.901674120170487 -4.190679683442541 -27.818374283220503 0 0 0
9819 1 1 -19.31667982116625 -3.8001051656685405 -28.659421159353446 0 0 0
11233 1 1 -18.502257035606412 -3.4115804946003485 -27.932234968372 0 0 0
9820 1 1 -18.250877748691828 -3.887266474965617 -29.42992267660752 0 0 0
11232 1 1 -19.464517882478802 -3.5819220232391853 -27.08246905636958 0 0 0
11234 1 1 -17.14322924419527 -2.9000179369647863 -28.509483294221887 0 0 0
9821 1 1 -16.98527682747157 -4.7027030158080105 -29.498054333073178 0 0 0
11235 1 1 -15.477490093351372 -1.8935493821611187 -28.30704177902585 0 0 0
17835 1 1 -7.237452398054038 -4.402702106127074 -27.114397244838003 0 0 1
17833 1 1 -6.157726528211489 -4.516925485191442 -29.27966221669665 0 0 1
17834 1 1 -6.75654831145122 -3.9206037352121035 -28.058712024465702 0 0 1
17705 1 1 -6.053309797747125 -3.7446375078846947 -27.046386868114496 0 0 0
17704 1 1 -7.442166338991471 -3.137776449334428 -26.903425369130236 0 0 0
11246 1 1 -4.728142360346702 -3.7951442436235685 -28.88670342203949 0 0 0
17706 1 1 -4.50324642762542 -4.097415161550487 -26.964872778175867 0 0 0
11247 1 1 -3.580766172022599 -3.2978074302703573 -27.240492586589802 0 0 0
17847 1 1 4.039043616889487 -4.380554747716452 -29.385883952348163 0 0 1
14774 1 1 3.089439269325561 -4.164621241939706 -28.332678913008277 0 0 1
14775 1 1 3.2438682112277952 -2.4391178401319062 -28.159912546780326 0 0 1
450 1 1 5.387488084929879 -2.554432625363072 29.595383216799117 -1 0 0
3932 1 1 14.277291700033793 -2.181089246175624 -29.186320685775478 -1 0 1
990 1 1 14.839157592171183 -3.737087955244304 -29.002662060751064 -1 0 0
989 1 1 14.726106078661896 -4.38476928347825 -27.219910621895586 -1 0 0
991 1 1 15.355051036716121 -2.637380182853942 29.997584573707663 -1 0 -1
8493 1 1 -29.95543585312347 -3.3549841639084703 -28.623394520275323 0 0 0
8492 1 1 29.91492216801755 -2.964278517159501 -27.063425404346955 -1 0 0
5230 1 1 29.48277262830929 -1.9103834979464795 -28.22157419250288 -1 0 0
9761 1 1 -29.542804176720804 -1.4804421559019574 -28.738618905567883 0 0 0
8515 1 1 -29.925045864663822 -0.5177343837409738 -27.481461304404604 0 0 0
11236 1 1 -13.841194219830673 -0.878570612364667 -28.009016829908777 0 0 0
11237 1 1 -12.15827778818955 0.09721046414863241 -27.789353948426847 0 0 0
16058 1 1 -11.410052928097398 1.2622192698330628 -27.915877816152957 0 0 0
12869 1 1 -11.296247181020437 1.1770056751833542 -26.837408573138923 0 0 0
16057 1 1 -10.944887458673833 0.11850245865045722 -26.85501953295043 0 0 0
11238 1 1 -10.741371001734656 0.49633297013155264 -28.25844468512184 0 0 0
11239 1 1 -9.67401704516631 1.2384996624426763 -29.197236657723927 0 0 0
744 1 1 -6.927533422470815 1.33553960678826 -29.21780637127635 -1 0 1
14776 1 1 3.447413813247134 -1.3304203761075406 -29.275992070165096 0 0 1
15601 1 1 3.5429780107799838 -1.21060623655422 -27.735875915744394 0 0 0
3742 1 1 4.795075044418412 0.3515426411196218 -27.57964273268082 -1 0 0
2212 1 1 5.440619827186372 -0.04796097257344445 -28.799130573172743 -1 0 1
2213 1 1 5.984801977598978 0.807635772316305 -27.777656449485473 -1 0 1
3743 1 1 5.4061562285354015 1.236957894247108 -28.577560084186494 -1 0 0
3744 1 1 5.16776664876374 0.8234504163828988 -29.854874423008162 -1 0 0
17383 1 1 13.41982343522516 -0.5786326498535145 -28.86203961928965 0 0 0
17382 1 1 13.210739173606994 -0.09033453049003833 -27.3847455194523 0 0 0
1020 1 1 13.347491122644092 0.895812841025492 -28.429435150796937 -1 0 0
1019 1 1 14.063823492053421 -0.31810253874520045 -27.942607013519734 -1 0 0
3931 1 1 14.707315786786364 -1.0932408689496387 -29.159349648467515 -1 0 1
999 1 1 24.739216802856767 0.43387395623420183 -29.350801985830053 -1 0 0
955 1 1 26.06960433975226 -0.3271336945562445 -28.061588557721493 -1 0 0
956 1 1 26.096735892381457 -0.5859997281436777 -29.67961482392043 -1 0 0
5231 1 1 28.06277952132079 -1.3789003152319648 -27.97645539427743 -1 0 0
9760 1 1 29.056751417118097 -0.9842324906748846 -28.6248476918342 -1 0 0
9759 1 1 27.487411345227244 -1.084461333371131 -29.337606911451154 -1 0 0
16059 1 1 -11.170975702451681 2.2404119531923454 -29.157688206130324 0 0 0
12871 1 1 -10.706251563035876 3.297674032309786 -29.17773958778052 0 0 0
12870 1 1 -10.56135776722596 2.3130994230765225 -27.63937021552079 0 0 0
14438 1 1 -8.700056651017013 2.325487325711875 -27.51134579429168 0 0 0
14437 1 1 -9.727044356006399 2.4352417423352755 -28.48930294973952 0 0 0
14436 1 1 -10.01074162495319 2.347531097174236 -29.616465791766995 0 0 0
16349 1 1 -5.360673731832079 1.741932350051325 -29.39092756767401 0 0 1
745 1 1 -7.133223680948923 2.049549149626357 -27.889316863653367 -1 0 1
746 1 1 -6.050785918464677 2.5080401436516264 -26.966365578159458 -1 0 1
16348 1 1 -4.13773385416096 1.915248188641335 -28.06132002064253 0 0 1
15902 1 1 -4.350032991000389 2.1940553536991807 -29.26511345658434 0 0 0
15903 1 1 -4.013354392430026 3.00947558425086 -27.978211448015045 0 0 0
15904 1 1 -3.0060040286206053 3.512173624610681 -27.314799760375035 0 0 0
747 1 1 -4.710781699185557 2.8843156604828786 -26.559159449917168 -1 0 1
16347 1 1 -3.0220275842010387 2.448610966468914 -26.67438833606063 0 0 1
17421 1 1 6.40002749806356 2.616827750258293 -28.04979685647882 0 0 1
17420 1 1 6.85829600281907 4.393851801774666 -29.00610356699074 0 0 1
1021 1 1 12.661641460811289 2.6092173839926986 -28.64348482717324 -1 0 0
1022 1 1 11.94644723704912 4.301617644251365 -28.864734761255733 -1 0 0
5254 1 1 17.07596720001593 3.5068879472404446 29.770160683801006 -1 0 0
966 1 1 18.72415098689768 3.0267156019583847 -29.091704117005 -1 0 0
927 1 1 18.42602986022275 3.779440230404249 -27.862442975276167 -1 0 0
967 1 1 18.987100290639663 2.699494433400067 -27.83263962214323 -1 0 0
5256 1 1 18.769775023028256 4.1485700989974985 -29.600782705492172 -1 0 1
1003 1 1 20.1752830673102 2.466897700371977 -27.33753512374127 -1 0 0
5257 1 1 20.33173162261406 3.853089634567166 -29.705356336455193 -1 0 1
928 1 1 19.456102692482332 4.3091169133065454 -28.78126801319662 -1 0 0
1002 1 1 21.074261342111452 3.0602497375191358 -28.71370280157291 -1 0 0
1001 1 1 22.47724769720576 3.0908696959593085 -29.63196543556793 -1 0 0
1000 1 1 23.772387207878825 1.903052510688887 -29.42956121014672 -1 0 0
14082 1 1 -8.875639955281006 5.8837493451963185 -27.05398369059416 0 0 1
16063 1 1 -7.540845099978241 6.64080325389814 -29.636157233661926 0 0 0
14081 1 1 -7.634708423183071 6.819990632213618 -28.323182212786463 0 0 1
16064 1 1 -6.300905267929342 7.636666600352461 -28.489474081436928 0 0 0
14080 1 1 -6.917650933608386 7.567943553160882 -29.65259209069685 0 0 1
17433 1 1 -0.8588395393087092 4.590113913467801 -29.23689962273323 0 0 1
17432 1 1 -0.9418009049089675 5.115766241747564 -27.778328586831062 0 0 1
17091 1 1 -1.0308665645564237 6.562060305587565 -29.32240356855437 0 0 0
17092 1 1 -0.2685059663037793 6.59848651872628 -28.01985873228719 0 0 0
14101 1 1 -0.8433902411890664 5.448254345583639 29.81223662285021 0 0 -1
1155 1 1 5.46816937552039 6.9593156993952485 -28.221626182558754 -1 0 0
1156 1 1 6.551300228403987 5.875236630474351 -28.904997975614528 -1 0 0
17419 1 1 7.28147710459732 5.620491511654614 29.828136435864582 0 0 0
1157 1 1 7.796115757878087 5.477099942754231 -28.947874973813565 -1 0 0
1158 1 1 9.229608022194618 5.614470969856426 -28.57529068925292 -1 0 0
1024 1 1 10.16204607236408 6.08590429483045 -29.209938824923587 -1 0 0
1025 1 1 10.34463918476432 6.691706121787694 -28.30030646173459 -1 0 0
1159 1 1 10.463598523532118 5.5398003397794415 -28.300644220151398 -1 0 0
17106 1 1 10.56430268306759 7.064948154069186 -29.325538791938982 0 0 1
1023 1 1 11.05216821468088 5.432165902059882 -29.344329659413717 -1 0 0
1026 1 1 11.512577620170878 7.213216217025142 -27.62458568164538 -1 0 0
1160 1 1 11.67685989435266 5.852813519694641 -28.280080724091103 -1 0 0
1161 1 1 12.74932405988578 6.560272813365954 -28.307419288466736 -1 0 0
17105 1 1 11.734898535892516 7.5927719913028175 -28.612928508952223 0 0 1
1162 1 1 14.312904264232484 6.7774426688658505 -28.377955164397495 -1 0 0
5255 1 1 17.28313826128453 4.796197759055089 -29.314440998773108 -1 0 1
17101 1 1 15.795716554740272 6.356569890680726 -28.829075612232575 0 0 1
17102 1 1 14.951908524424814 7.613170312012954 -29.085150239709154 0 0 1
1163 1 1 15.082853116671632 7.661108867994326 -28.011143549406313 -1 0 0
2225 1 1 18.38973970603617 5.046703781990465 -28.21330663906707 -1 0 1
929 1 1 20.371210637744298 4.967585721983771 -29.73685149243261 -1 0 0
2226 1 1 19.39375362457946 5.413010937244704 -29.74070584735435 -1 0 1
4953 1 1 25.863331913309604 5.084624631199245 -28.56990711600982 -1 0 1