LAMMPS chain data file

18750 atoms
18625 bonds
18500 angles
0 dihedrals
0 impropers

1 atom types
1 bond types
1 angle types
0 dihedral types
0 improper types

-50.00000 50.00000 xlo xhi
-50.00000 50.00000 ylo yhi
-50.00000 50.00000 zlo zhi

Masses

1  9.42478

Atoms

1 1 1 -47.5 -47.5 -47.5
2 1 1 -47.5 -47.5 -45
3 1 1 -47.5 -47.5 -42.5
4 1 1 -47.5 -47.5 -40
5 1 1 -47.5 -47.5 -37.5
6 1 1 -47.5 -47.5 -35
7 1 1 -47.5 -47.5 -32.5
8 1 1 -47.5 -47.5 -30
9 1 1 -47.5 -47.5 -27.5
10 1 1 -47.5 -47.5 -25
11 1 1 -47.5 -47.5 -22.5
12 1 1 -47.5 -47.5 -20
13 1 1 -47.5 -47.5 -17.5
14 1 1 -47.5 -47.5 -15
15 1 1 -47.5 -47.5 -12.5
16 1 1 -47.5 -47.5 -10
17 1 1 -47.5 -47.5 -7.5
18 1 1 -47.5 -47.5 -5
19 1 1 -47.5 -47.5 -2.5
20 1 1 -47.5 -47.5 0
21 1 1 -47.5 -47.5 2.5
22 1 1 -47.5 -47.5 5
23 1 1 -47.5 -47.5 7.5
24 1 1 -47.5 -47.5 10
25 1 1 -47.5 -47.5 12.5
26 1 1 -47.5 -47.5 15
27 1 1 -47.5 -47.5 17.5
28 1 1 -47.5 -47.5 20
29 1 1 -47.5 -47.5 22.5
30 1 1 -47.5 -47.5 25
31 1 1 -47.5 -47.5 27.5
32 1 1 -47.5 -47.5 30
33 1 1 -47.5 -47.5 32.5
34 1 1 -47.5 -47.5 35
35 1 1 -47.5 -47.5 37.5
36 1 1 -47.5 -47.5 40
37 1 1 -47.5 -47.5 42.5
38 1 1 -47.5 -47.5 45
39 1 1 -47.5 -47.5 47.5
40 1 1 -47.5 -45 47.5
41 1 1 -47.5 -45 45
42 1 1 -47.5 -45 42.5
43 1 1 -47.5 -45 40
44 1 1 -47.5 -45 37.5
45 1 1 -47.5 -45 35
46 1 1 -47.5 -45 32.5
47 1 1 -47.5 -45 30
48 1 1 -47.5 -45 27.5
49 1 1 -47.5 -45 25
50 1 1 -47.5 -45 22.5
51 1 1 -47.5 -45 20
52 1 1 -47.5 -45 17.5
53 1 1 -47.5 -45 15
54 1 1 -47.5 -45 12.5
55 1 1 -47.5 -45 10
56 1 1 -47.5 -45 7.5
57 1 1 -47.5 -45 5
58 1 1 -47.5 -45 2.5
59 1 1 -47.5 -45 0
60 1 1 -47.5 -45 -2.5
61 1 1 -47.5 -45 -5
62 1 1 -47.5 -45 -7.5
63 1 1 -47.5 -45 -10
64 1 1 -47.5 -45 -12.5
65 1 1 -47.5 -45 -15
66 1 1 -47.5 -45 -17.5
67 1 1 -47.5 -45 -20
68 1 1 -47.5 -45 -22.5
69 1 1 -47.5 -45 -25
70 1 1 -47.5 -45 -27.5
71 1 1 -47.5 -45 -30
72 1 1 -47.5 -45 -32.5
73 1 1 -47.5 -45 -35
74 1 1 -47.5 -45 -37.5
75 1 1 -47.5 -45 -40
76 1 1 -47.5 -45 -42.5
77 1 1 -47.5 -45 -45
78 1 1 -47.5 -45 -47.5
79 1 1 -47.5 -42.5 -47.5
80 1 1 -47.5 -42.5 -45
81 1 1 -47.5 -42.5 -42.5
82 1 1 -47.5 -42.5 -40
83 1 1 -47.5 -42.5 -37.5
84 1 1 -47.5 -42.5 -35
85 1 1 -47.5 -42.5 -32.5
86 1 1 -47.5 -42.5 -30
87 1 1 -47.5 -42.5 -27.5
88 1 1 -47.5 -42.5 -25
89 1 1 -47.5 -42.5 -22.5
90 1 1 -47.5 -42.5 -20
91 1 1 -47.5 -42.5 -17.5
92 1 1 -47.5 -42.5 -15
93 1 1 -47.5 -42.5 -12.5
94 1 1 -47.5 -42.5 -10
95 1 1 -47.5 -42.5 -7.5
96 1 1 -47.5 -42.5 -5
97 1 1 -47.5 -42.5 -2.5
98 1 1 -47.5 -42.5 0
99 1 1 -47.5 -42.5 2.5
100 1 1 -47.5 -42.5 5
101 1 1 -47.5 -42.5 7.5
102 1 1 -47.5 -42.5 10
103 1 1 -47.5 -42.5 12.5
104 1 1 -47.5 -42.5 15
105 1 1 -47.5 -42.5 17.5
106 1 1 -47.5 -42.5 20
107 1 1 -47.5 -42.5 22.5
108 1 1 -47.5 -42.5 25
109 1 1 -47.5 -42.5 27.5
110 1 1 -47.5 -42.5 30
111 1 1 -47.5 -42.5 32.5
112 1 1 -47.5 -42.5 35
113 1 1 -47.5 -42.5 37.5
114 1 1 -47.5 -42.5 40
115 1 1 -47.5 -42.5 42.5
116 1 1 -47.5 -42.5 45
117 1 1 -47.5 -42.5 47.5
118 1 1 -47.5 -40 47.5
119 1 1 -47.5 -40 45
120 1 1 -47.5 -40 42.5
121 1 1 -47.5 -40 40
122 1 1 -47.5 -40 37.5
123 1 1 -47.5 -40 35
124 1 1 -47.5 -40 32.5
125 1 1 -47.5 -40 30
126 1 1 -47.5 -40 27.5
127 1 1 -47.5 -40 25
128 1 1 -47.5 -40 22.5
129 1 1 -47.5 -40 20
130 1 1 -47.5 -40 17.5
131 1 1 -47.5 -40 15
132 1 1 -47.5 -40 12.5
133 1 1 -47.5 -40 10
134 1 1 -47.5 -40 7.5
135 1 1 -47.5 -40 5
136 1 1 -47.5 -40 2.5
137 1 1 -47.5 -40 0
138 1 1 -47.5 -40 -2.5
139 1 1 -47.5 -40 -5
140 1 1 -47.5 -40 -7.5
141 1 1 -47.5 -40 -10
142 1 1 -47.5 -40 -12.5
143 1 1 -47.5 -40 -15
144 1 1 -47.5 -40 -17.5
145 1 1 -47.5 -40 -20
146 1 1 -47.5 -40 -22.5
147 1 1 -47.5 -40 -25
148 1 1 -47.5 -40 -27.5
149 1 1 -47.5 -40 -30
150 1 1 -47.5 -40 -32.5
151 1 1 -47.5 -40 -35
152 1 1 -47.5 -40 -37.5
153 1 1 -47.5 -40 -40
154 1 1 -47.5 -40 -42.5
155 1 1 -47.5 -40 -45
156 1 1 -47.5 -40 -47.5
157 1 1 -47.5 -37.5 -47.5
158 1 1 -47.5 -37.5 -45
159 1 1 -47.5 -37.5 -42.5
160 1 1 -47.5 -37.5 -40
161 1 1 -47.5 -37.5 -37.5
162 1 1 -47.5 -37.5 -35
163 1 1 -47.5 -37.5 -32.5
164 1 1 -47.5 -37.5 -30
165 1 1 -47.5 -37.5 -27.5
166 1 1 -47.5 -37.5 -25
167 1 1 -47.5 -37.5 -22.5
168 1 1 -47.5 -37.5 -20
169 1 1 -47.5 -37.5 -17.5
170 1 1 -47.5 -37.5 -15
171 1 1 -47.5 -37.5 -12.5
172 1 1 -47.5 -37.5 -10
173 1 1 -47.5 -37.5 -7.5
174 1 1 -47.5 -37.5 -5
175 1 1 -47.5 -37.5 -2.5
176 1 1 -47.5 -37.5 0
177 1 1 -47.5 -37.5 2.5
178 1 1 -47.5 -37.5 5
179 1 1 -47.5 -37.5 7.5
180 1 1 -47.5 -37.5 10
181 1 1 -47.5 -37.5 12.5
182 1 1 -47.5 -37.5 15
183 1 1 -47.5 -37.5 17.5
184 1 1 -47.5 -37.5 20
185 1 1 -47.5 -37.5 22.5
186 1 1 -47.5 -37.5 25
187 1 1 -47.5 -37.5 27.5
188 1 1 -47.5 -37.5 30
189 1 1 -47.5 -37.5 32.5
190 1 1 -47.5 -37.5 35
191 1 1 -47.5 -37.5 37.5
192 1 1 -47.5 -37.5 40
193 1 1 -47.5 -37.5 42.5
194 1 1 -47.5 -37.5 45
195 1 1 -47.5 -37.5 47.5
196 1 1 -47.5 -35 47.5
197 1 1 -47.5 -35 45
198 1 1 -47.5 -35 42.5
199 1 1 -47.5 -35 40
200 1 1 -47.5 -35 37.5
201 1 1 -47.5 -35 35
202 1 1 -47.5 -35 32.5
203 1 1 -47.5 -35 30
204 1 1 -47.5 -35 27.5
205 1 1 -47.5 -35 25
206 1 1 -47.5 -35 22.5
207 1 1 -47.5 -35 20
208 1 1 -47.5 -35 17.5
209 1 1 -47.5 -35 15
210 1 1 -47.5 -35 12.5
211 1 1 -47.5 -35 10
212 1 1 -47.5 -35 7.5
213 1 1 -47.5 -35 5
214 1 1 -47.5 -35 2.5
215 1 1 -47.5 -35 0
216 1 1 -47.5 -35 -2.5
217 1 1 -47.5 -35 -5
218 1 1 -47.5 -35 -7.5
219 1 1 -47.5 -35 -10
220 1 1 -47.5 -35 -12.5
221 1 1 -47.5 -35 -15
222 1 1 -47.5 -35 -17.5
223 1 1 -47.5 -35 -20
224 1 1 -47.5 -35 -22.5
225 1 1 -47.5 -35 -25
226 1 1 -47.5 -35 -27.5
227 1 1 -47.5 -35 -30
228 1 1 -47.5 -35 -32.5
229 1 1 -47.5 -35 -35
230 1 1 -47.5 -35 -37.5
231 1 1 -47.5 -35 -40
232 1 1 -47.5 -35 -42.5
233 1 1 -47.5 -35 -45
234 1 1 -47.5 -35 -47.5
235 1 1 -47.5 -32.5 -47.5
236 1 1 -47.5 -32.5 -45
237 1 1 -47.5 -32.5 -42.5
238 1 1 -47.5 -32.5 -40
239 1 1 -47.5 -32.5 -37.5
240 1 1 -47.5 -32.5 -35
241 1 1 -47.5 -32.5 -32.5
242 1 1 -47.5 -32.5 -30
243 1 1 -47.5 -32.5 -27.5
244 1 1 -47.5 -32.5 -25
245 1 1 -47.5 -32.5 -22.5
246 1 1 -47.5 -32.5 -20
247 1 1 -47.5 -32.5 -17.5
248 1 1 -47.5 -32.5 -15
249 1 1 -47.5 -32.5 -12.5
250 1 1 -47.5 -32.5 -10
251 1 1 -47.5 -32.5 -7.5
252 1 1 -47.5 -32.5 -5
253 1 1 -47.5 -32.5 -2.5
254 1 1 -47.5 -32.5 0
255 1 1 -47.5 -32.5 2.5
256 1 1 -47.5 -32.5 5
257 1 1 -47.5 -32.5 7.5
258 1 1 -47.5 -32.5 10
259 1 1 -47.5 -32.5 12.5
260 1 1 -47.5 -32.5 15
261 1 1 -47.5 -32.5 17.5
262 1 1 -47.5 -32.5 20
263 1 1 -47.5 -32.5 22.5
264 1 1 -47.5 -32.5 25
265 1 1 -47.5 -32.5 27.5
266 1 1 -47.5 -32.5 30
267 1 1 -47.5 -32.5 32.5
268 1 1 -47.5 -32.5 35
269 1 1 -47.5 -32.5 37.5
270 1 1 -47.5 -32.5 40
271 1 1 -47.5 -32.5 42.5
272 1 1 -47.5 -32.5 45
273 1 1 -47.5 -32.5 47.5
274 1 1 -47.5 -30 47.5
275 1 1 -47.5 -30 45
276 1 1 -47.5 -30 42.5
277 1 1 -47.5 -30 40
278 1 1 -47.5 -30 37.5
279 1 1 -47.5 -30 35
280 1 1 -47.5 -30 32.5
281 1 1 -47.5 -30 30
282 1 1 -47.5 -30 27.5
283 1 1 -47.5 -30 25
284 1 1 -47.5 -30 22.5
285 1 1 -47.5 -30 20
286 1 1 -47.5 -30 17.5
287 1 1 -47.5 -30 15
288 1 1 -47.5 -30 12.5
289 1 1 -47.5 -30 10
290 1 1 -47.5 -30 7.5
291 1 1 -47.5 -30 5
292 1 1 -47.5 -30 2.5
293 1 1 -47.5 -30 0
294 1 1 -47.5 -30 -2.5
295 1 1 -47.5 -30 -5
296 1 1 -47.5 -30 -7.5
297 1 1 -47.5 -30 -10
298 1 1 -47.5 -30 -12.5
299 1 1 -47.5 -30 -15
300 1 1 -47.5 -30 -17.5
301 1 1 -47.5 -30 -20
302 1 1 -47.5 -30 -22.5
303 1 1 -47.5 -30 -25
304 1 1 -47.5 -30 -27.5
305 1 1 -47.5 -30 -30
306 1 1 -47.5 -30 -32.5
307 1 1 -47.5 -30 -35
308 1 1 -47.5 -30 -37.5
309 1 1 -47.5 -30 -40
310 1 1 -47.5 -30 -42.5
311 1 1 -47.5 -30 -45
312 1 1 -47.5 -30 -47.5
313 1 1 -47.5 -27.5 -47.5
314 1 1 -47.5 -27.5 -45
315 1 1 -47.5 -27.5 -42.5
316 1 1 -47.5 -27.5 -40
317 1 1 -47.5 -27.5 -37.5
318 1 1 -47.5 -27.5 -35
319 1 1 -47.5 -27.5 -32.5
320 1 1 -47.5 -27.5 -30
321 1 1 -47.5 -27.5 -27.5
322 1 1 -47.5 -27.5 -25
323 1 1 -47.5 -27.5 -22.5
324 1 1 -47.5 -27.5 -20
325 1 1 -47.5 -27.5 -17.5
326 1 1 -47.5 -27.5 -15
327 1 1 -47.5 -27.5 -12.5
328 1 1 -47.5 -27.5 -10
329 1 1 -47.5 -27.5 -7.5
330 1 1 -47.5 -27.5 -5
331 1 1 -47.5 -27.5 -2.5
332 1 1 -47.5 -27.5 0
333 1 1 -47.5 -27.5 2.5
334 1 1 -47.5 -27.5 5
335 1 1 -47.5 -27.5 7.5
336 1 1 -47.5 -27.5 10
337 1 1 -47.5 -27.5 12.5
338 1 1 -47.5 -27.5 15
339 1 1 -47.5 -27.5 17.5
340 1 1 -47.5 -27.5 20
341 1 1 -47.5 -27.5 22.5
342 1 1 -47.5 -27.5 25
343 1 1 -47.5 -27.5 27.5
344 1 1 -47.5 -27.5 30
345 1 1 -47.5 -27.5 32.5
346 1 1 -47.5 -27.5 35
347 1 1 -47.5 -27.5 37.5
348 1 1 -47.5 -27.5 40
349 1 1 -47.5 -27.5 42.5
350 1 1 -47.5 -27.5 45
351 1 1 -47.5 -27.5 47.5
352 1 1 -47.5 -25 47.5
353 1 1 -47.5 -25 45
354 1 1 -47.5 -25 42.5
355 1 1 -47.5 -25 40
356 1 1 -47.5 -25 37.5
357 1 1 -47.5 -25 35
358 1 1 -47.5 -25 32.5
359 1 1 -47.5 -25 30
360 1 1 -47.5 -25 27.5
361 1 1 -47.5 -25 25
362 1 1 -47.5 -25 22.5
363 1 1 -47.5 -25 20
364 1 1 -47.5 -25 17.5
365 1 1 -47.5 -25 15
366 1 1 -47.5 -25 12.5
367 1 1 -47.5 -25 10
368 1 1 -47.5 -25 7.5
369 1 1 -47.5 -25 5
370 1 1 -47.5 -25 2.5
371 1 1 -47.5 -25 0
372 1 1 -47.5 -25 -2.5
373 1 1 -47.5 -25 -5
374 1 1 -47.5 -25 -7.5
375 1 1 -47.5 -25 -10
376 1 1 -47.5 -25 -12.5
377 1 1 -47.5 -25 -15
378 1 1 -47.5 -25 -17.5
379 1 1 -47.5 -25 -20
380 1 1 -47.5 -25 -22.5
381 1 1 -47.5 -25 -25
382 1 1 -47.5 -25 -27.5
383 1 1 -47.5 -25 -30
384 1 1 -47.5 -25 -32.5
385 1 1 -47.5 -25 -35
386 1 1 -47.5 -25 -37.5
387 1 1 -47.5 -25 -40
388 1 1 -47.5 -25 -42.5
389 1 1 -47.5 -25 -45
390 1 1 -47.5 -25 -47.5
391 1 1 -47.5 -22.5 -47.5
392 1 1 -47.5 -22.5 -45
393 1 1 -47.5 -22.5 -42.5
394 1 1 -47.5 -22.5 -40
395 1 1 -47.5 -22.5 -37.5
396 1 1 -47.5 -22.5 -35
397 1 1 -47.5 -22.5 -32.5
398 1 1 -47.5 -22.5 -30
399 1 1 -47.5 -22.5 -27.5
400 1 1 -47.5 -22.5 -25
401 1 1 -47.5 -22.5 -22.5
402 1 1 -47.5 -22.5 -20
403 1 1 -47.5 -22.5 -17.5
404 1 1 -47.5 -22.5 -15
405 1 1 -47.5 -22.5 -12.5
406 1 1 -47.5 -22.5 -10
407 1 1 -47.5 -22.5 -7.5
408 1 1 -47.5 -22.5 -5
409 1 1 -47.5 -22.5 -2.5
410 1 1 -47.5 -22.5 0
411 1 1 -47.5 -22.5 2.5
412 1 1 -47.5 -22.5 5
413 1 1 -47.5 -22.5 7.5
414 1 1 -47.5 -22.5 10
415 1 1 -47.5 -22.5 12.5
416 1 1 -47.5 -22.5 15
417 1 1 -47.5 -22.5 17.5
418 1 1 -47.5 -22.5 20
419 1 1 -47.5 -22.5 22.5
420 1 1 -47.5 -22.5 25
421 1 1 -47.5 -22.5 27.5
422 1 1 -47.5 -22.5 30
423 1 1 -47.5 -22.5 32.5
424 1 1 -47.5 -22.5 35
425 1 1 -47.5 -22.5 37.5
426 1 1 -47.5 -22.5 40
427 1 1 -47.5 -22.5 42.5
428 1 1 -47.5 -22.5 45
429 1 1 -47.5 -22.5 47.5
430 1 1 -47.5 -20 47.5
431 1 1 -47.5 -20 45
432 1 1 -47.5 -20 42.5
433 1 1 -47.5 -20 40
434 1 1 -47.5 -20 37.5
435 1 1 -47.5 -20 35
436 1 1 -47.5 -20 32.5
437 1 1 -47.5 -20 30
438 1 1 -47.5 -20 27.5
439 1 1 -47.5 -20 25
440 1 1 -47.5 -20 22.5
441 1 1 -47.5 -20 20
442 1 1 -47.5 -20 17.5
443 1 1 -47.5 -20 15
444 1 1 -47.5 -20 12.5
445 1 1 -47.5 -20 10
446 1 1 -47.5 -20 7.5
447 1 1 -47.5 -20 5
448 1 1 -47.5 -20 2.5
449 1 1 -47.5 -20 0
450 1 1 -47.5 -20 -2.5
451 1 1 -47.5 -20 -5
452 1 1 -47.5 -20 -7.5
453 1 1 -47.5 -20 -10
454 1 1 -47.5 -20 -12.5
455 1 1 -47.5 -20 -15
456 1 1 -47.5 -20 -17.5
457 1 1 -47.5 -20 -20
458 1 1 -47.5 -20 -22.5
459 1 1 -47.5 -20 -25
460 1 1 -47.5 -20 -27.5
461 1 1 -47.5 -20 -30
462 1 1 -47.5 -20 -32.5
463 1 1 -47.5 -20 -35
464 1 1 -47.5 -20 -37.5
465 1 1 -47.5 -20 -40
466 1 1 -47.5 -20 -42.5
467 1 1 -47.5 -20 -45
468 1 1 -47.5 -20 -47.5
469 1 1 -47.5 -17.5 -47.5
470 1 1 -47.5 -17.5 -45
471 1 1 -47.5 -17.5 -42.5
472 1 1 -47.5 -17.5 -40
473 1 1 -47.5 -17.5 -37.5
474 1 1 -47.5 -17.5 -35
475 1 1 -47.5 -17.5 -32.5
476 1 1 -47.5 -17.5 -30
477 1 1 -47.5 -17.5 -27.5
478 1 1 -47.5 -17.5 -25
479 1 1 -47.5 -17.5 -22.5
480 1 1 -47.5 -17.5 -20
481 1 1 -47.5 -17.5 -17.5
482 1 1 -47.5 -17.5 -15
483 1 1 -47.5 -17.5 -12.5
484 1 1 -47.5 -17.5 -10
485 1 1 -47.5 -17.5 -7.5
486 1 1 -47.5 -17.5 -5
487 1 1 -47.5 -17.5 -2.5
488 1 1 -47.5 -17.5 0
489 1 1 -47.5 -17.5 2.5
490 1 1 -47.5 -17.5 5
491 1 1 -47.5 -17.5 7.5
492 1 1 -47.5 -17.5 10
493 1 1 -47.5 -17.5 12.5
494 1 1 -47.5 -17.5 15
495 1 1 -47.5 -17.5 17.5
496 1 1 -47.5 -17.5 20
497 1 1 -47.5 -17.5 22.5
498 1 1 -47.5 -17.5 25
499 1 1 -47.5 -17.5 27.5
500 1 1 -47.5 -17.5 30
501 1 1 -47.5 -17.5 32.5
502 1 1 -47.5 -17.5 35
503 1 1 -47.5 -17.5 37.5
504 1 1 -47.5 -17.5 40
505 1 1 -47.5 -17.5 42.5
506 1 1 -47.5 -17.5 45
507 1 1 -47.5 -17.5 47.5
508 1 1 -47.5 -15 47.5
509 1 1 -47.5 -15 45
510 1 1 -47.5 -15 42.5
511 1 1 -47.5 -15 40
512 1 1 -47.5 -15 37.5
513 1 1 -47.5 -15 35
514 1 1 -47.5 -15 32.5
515 1 1 -47.5 -15 30
516 1 1 -47.5 -15 27.5
517 1 1 -47.5 -15 25
518 1 1 -47.5 -15 22.5
519 1 1 -47.5 -15 20
520 1 1 -47.5 -15 17.5
521 1 1 -47.5 -15 15
522 1 1 -47.5 -15 12.5
523 1 1 -47.5 -15 10
524 1 1 -47.5 -15 7.5
525 1 1 -47.5 -15 5
526 1 1 -47.5 -15 2.5
527 1 1 -47.5 -15 0
528 1 1 -47.5 -15 -2.5
529 1 1 -47.5 -15 -5
530 1 1 -47.5 -15 -7.5
531 1 1 -47.5 -15 -10
532 1 1 -47.5 -15 -12.5
533 1 1 -47.5 -15 -15
534 1 1 -47.5 -15 -17.5
535 1 1 -47.5 -15 -20
536 1 1 -47.5 -15 -22.5
537 1 1 -47.5 -15 -25
538 1 1 -47.5 -15 -27.5
539 1 1 -47.5 -15 -30
540 1 1 -47.5 -15 -32.5
541 1 1 -47.5 -15 -35
542 1 1 -47.5 -15 -37.5
543 1 1 -47.5 -15 -40
544 1 1 -47.5 -15 -42.5
545 1 1 -47.5 -15 -45
546 1 1 -47.5 -15 -47.5
547 1 1 -47.5 -12.5 -47.5
548 1 1 -47.5 -12.5 -45
549 1 1 -47.5 -12.5 -42.5
550 1 1 -47.5 -12.5 -40
551 1 1 -47.5 -12.5 -37.5
552 1 1 -47.5 -12.5 -35
553 1 1 -47.5 -12.5 -32.5
554 1 1 -47.5 -12.5 -30
555 1 1 -47.5 -12.5 -27.5
556 1 1 -47.5 -12.5 -25
557 1 1 -47.5 -12.5 -22.5
558 1 1 -47.5 -12.5 -20
559 1 1 -47.5 -12.5 -17.5
560 1 1 -47.5 -12.5 -15
561 1 1 -47.5 -12.5 -12.5
562 1 1 -47.5 -12.5 -10
563 1 1 -47.5 -12.5 -7.5
564 1 1 -47.5 -12.5 -5
565 1 1 -47.5 -12.5 -2.5
566 1 1 -47.5 -12.5 0
567 1 1 -47.5 -12.5 2.5
568 1 1 -47.5 -12.5 5
569 1 1 -47.5 -12.5 7.5
570 1 1 -47.5 -12.5 10
571 1 1 -47.5 -12.5 12.5
572 1 1 -47.5 -12.5 15
573 1 1 -47.5 -12.5 17.5
574 1 1 -47.5 -12.5 20
575 1 1 -47.5 -12.5 22.5
576 1 1 -47.5 -12.5 25
577 1 1 -47.5 -12.5 27.5
578 1 1 -47.5 -12.5 30
579 1 1 -47.5 -12.5 32.5
580 1 1 -47.5 -12.5 35
581 1 1 -47.5 -12.5 37.5
582 1 1 -47.5 -12.5 40
583 1 1 -47.5 -12.5 42.5
584 1 1 -47.5 -12.5 45
585 1 1 -47.5 -12.5 47.5
586 1 1 -47.5 -10 47.5
587 1 1 -47.5 -10 45
588 1 1 -47.5 -10 42.5
589 1 1 -47.5 -10 40
590 1 1 -47.5 -10 37.5
591 1 1 -47.5 -10 35
592 1 1 -47.5 -10 32.5
593 1 1 -47.5 -10 30
594 1 1 -47.5 -10 27.5
595 1 1 -47.5 -10 25
596 1 1 -47.5 -10 22.5
597 1 1 -47.5 -10 20
598 1 1 -47.5 -10 17.5
599 1 1 -47.5 -10 15
600 1 1 -47.5 -10 12.5
601 1 1 -47.5 -10 10
602 1 1 -47.5 -10 7.5
603 1 1 -47.5 -10 5
604 1 1 -47.5 -10 2.5
605 1 1 -47.5 -10 0
606 1 1 -47.5 -10 -2.5
607 1 1 -47.5 -10 -5
608 1 1 -47.5 -10 -7.5
609 1 1 -47.5 -10 -10
610 1 1 -47.5 -10 -12.5
611 1 1 -47.5 -10 -15
612 1 1 -47.5 -10 -17.5
613 1 1 -47.5 -10 -20
614 1 1 -47.5 -10 -22.5
615 1 1 -47.5 -10 -25
616 1 1 -47.5 -10 -27.5
617 1 1 -47.5 -10 -30
618 1 1 -47.5 -10 -32.5
619 1 1 -47.5 -10 -35
620 1 1 -47.5 -10 -37.5
621 1 1 -47.5 -10 -40
622 1 1 -47.5 -10 -42.5
623 1 1 -47.5 -10 -45
624 1 1 -47.5 -10 -47.5
625 1 1 -47.5 -7.5 -47.5
626 1 1 -47.5 -7.5 -45
627 1 1 -47.5 -7.5 -42.5
628 1 1 -47.5 -7.5 -40
629 1 1 -47.5 -7.5 -37.5
630 1 1 -47.5 -7.5 -35
631 1 1 -47.5 -7.5 -32.5
632 1 1 -47.5 -7.5 -30
633 1 1 -47.5 -7.5 -27.5
634 1 1 -47.5 -7.5 -25
635 1 1 -47.5 -7.5 -22.5
636 1 1 -47.5 -7.5 -20
637 1 1 -47.5 -7.5 -17.5
638 1 1 -47.5 -7.5 -15
639 1 1 -47.5 -7.5 -12.5
640 1 1 -47.5 -7.5 -10
641 1 1 -47.5 -7.5 -7.5
642 1 1 -47.5 -7.5 -5
643 1 1 -47.5 -7.5 -2.5
644 1 1 -47.5 -7.5 0
645 1 1 -47.5 -7.5 2.5
646 1 1 -47.5 -7.5 5
647 1 1 -47.5 -7.5 7.5
648 1 1 -47.5 -7.5 10
649 1 1 -47.5 -7.5 12.5
650 1 1 -47.5 -7.5 15
651 1 1 -47.5 -7.5 17.5
652 1 1 -47.5 -7.5 20
653 1 1 -47.5 -7.5 22.5
654 1 1 -47.5 -7.5 25
655 1 1 -47.5 -7.5 27.5
656 1 1 -47.5 -7.5 30
657 1 1 -47.5 -7.5 32.5
658 1 1 -47.5 -7.5 35
659 1 1 -47.5 -7.5 37.5
660 1 1 -47.5 -7.5 40
661 1 1 -47.5 -7.5 42.5
662 1 1 -47.5 -7.5 45
663 1 1 -47.5 -7.5 47.5
664 1 1 -47.5 -5 47.5
665 1 1 -47.5 -5 45
666 1 1 -47.5 -5 42.5
667 1 1 -47.5 -5 40
668 1 1 -47.5 -5 37.5
669 1 1 -47.5 -5 35
670 1 1 -47.5 -5 32.5
671 1 1 -47.5 -5 30
672 1 1 -47.5 -5 27.5
673 1 1 -47.5 -5 25
674 1 1 -47.5 -5 22.5
675 1 1 -47.5 -5 20
676 1 1 -47.5 -5 17.5
677 1 1 -47.5 -5 15
678 1 1 -47.5 -5 12.5
679 1 1 -47.5 -5 10
680 1 1 -47.5 -5 7.5
681 1 1 -47.5 -5 5
682 1 1 -47.5 -5 2.5
683 1 1 -47.5 -5 0
684 1 1 -47.5 -5 -2.5
685 1 1 -47.5 -5 -5
686 1 1 -47.5 -5 -7.5
687 1 1 -47.5 -5 -10
688 1 1 -47.5 -5 -12.5
689 1 1 -47.5 -5 -15
690 1 1 -47.5 -5 -17.5
691 1 1 -47.5 -5 -20
692 1 1 -47.5 -5 -22.5
693 1 1 -47.5 -5 -25
694 1 1 -47.5 -5 -27.5
695 1 1 -47.5 -5 -30
696 1 1 -47.5 -5 -32.5
697 1 1 -47.5 -5 -35
698 1 1 -47.5 -5 -37.5
699 1 1 -47.5 -5 -40
700 1 1 -47.5 -5 -42.5
701 1 1 -47.5 -5 -45
702 1 1 -47.5 -5 -47.5
703 1 1 -47.5 -2.5 -47.5
704 1 1 -47.5 -2.5 -45
705 1 1 -47.5 -2.5 -42.5
706 1 1 -47.5 -2.5 -40
707 1 1 -47.5 -2.5 -37.5
708 1 1 -47.5 -2.5 -35
709 1 1 -47.5 -2.5 -32.5
710 1 1 -47.5 -2.5 -30
711 1 1 -47.5 -2.5 -27.5
712 1 1 -47.5 -2.5 -25
713 1 1 -47.5 -2.5 -22.5
714 1 1 -47.5 -2.5 -20
715 1 1 -47.5 -2.5 -17.5
716 1 1 -47.5 -2.5 -15
717 1 1 -47.5 -2.5 -12.5
718 1 1 -47.5 -2.5 -10
719 1 1 -47.5 -2.5 -7.5
720 1 1 -47.5 -2.5 -5
721 1 1 -47.5 -2.5 -2.5
722 1 1 -47.5 -2.5 0
723 1 1 -47.5 -2.5 2.5
724 1 1 -47.5 -2.5 5
725 1 1 -47.5 -2.5 7.5
726 1 1 -47.5 -2.5 10
727 1 1 -47.5 -2.5 12.5
728 1 1 -47.5 -2.5 15
729 1 1 -47.5 -2.5 17.5
730 1 1 -47.5 -2.5 20
731 1 1 -47.5 -2.5 22.5
732 1 1 -47.5 -2.5 25
733 1 1 -47.5 -2.5 27.5
734 1 1 -47.5 -2.5 30
735 1 1 -47.5 -2.5 32.5
736 1 1 -47.5 -2.5 35
737 1 1 -47.5 -2.5 37.5
738 1 1 -47.5 -2.5 40
739 1 1 -47.5 -2.5 42.5
740 1 1 -47.5 -2.5 45
741 1 1 -47.5 -2.5 47.5
742 1 1 -47.5 0 47.5
743 1 1 -47.5 0 45
744 1 1 -47.5 0 42.5
745 1 1 -47.5 0 40
746 1 1 -47.5 0 37.5
747 1 1 -47.5 0 35
748 1 1 -47.5 0 32.5
749 1 1 -47.5 0 30
750 1 1 -47.5 0 27.5
751 1 1 -47.5 0 25
752 1 1 -47.5 0 22.5
753 1 1 -47.5 0 20
754 1 1 -47.5 0 17.5
755 1 1 -47.5 0 15
756 1 1 -47.5 0 12.5
757 1 1 -47.5 0 10
758 1 1 -47.5 0 7.5
759 1 1 -47.5 0 5
760 1 1 -47.5 0 2.5
761 1 1 -47.5 0 0
762 1 1 -47.5 0 -2.5
763 1 1 -47.5 0 -5
764 1 1 -47.5 0 -7.5
765 1 1 -47.5 0 -10
766 1 1 -47.5 0 -12.5
767 1 1 -47.5 0 -15
768 1 1 -47.5 0 -17.5
769 1 1 -47.5 0 -20
770 1 1 -47.5 0 -22.5
771 1 1 -47.5 0 -25
772 1 1 -47.5 0 -27.5
773 1 1 -47.5 0 -30
774 1 1 -47.5 0 -32.5
775 1 1 -47.5 0 -35
776 1 1 -47.5 0 -37.5
777 1 1 -47.5 0 -40
778 1 1 -47.5 0 -42.5
779 1 1 -47.5 0 -45
780 1 1 -47.5 0 -47.5
781 1 1 -47.5 2.5 -47.5
782 1 1 -47.5 2.5 -45
783 1 1 -47.5 2.5 -42.5
784 1 1 -47.5 2.5 -40
785 1 1 -47.5 2.5 -37.5
786 1 1 -47.5 2.5 -35
787 1 1 -47.5 2.5 -32.5
788 1 1 -47.5 2.5 -30
789 1 1 -47.5 2.5 -27.5
790 1 1 -47.5 2.5 -25
791 1 1 -47.5 2.5 -22.5
792 1 1 -47.5 2.5 -20
793 1 1 -47.5 2.5 -17.5
794 1 1 -47.5 2.5 -15
795 1 1 -47.5 2.5 -12.5
796 1 1 -47.5 2.5 -10
797 1 1 -47.5 2.5 -7.5
798 1 1 -47.5 2.5 -5
799 1 1 -47.5 2.5 -2.5
800 1 1 -47.5 2.5 0
801 1 1 -47.5 2.5 2.5
802 1 1 -47.5 2.5 5
803 1 1 -47.5 2.5 7.5
804 1 1 -47.5 2.5 10
805 1 1 -47.5 2.5 12.5
806 1 1 -47.5 2.5 15
807 1 1 -47.5 2.5 17.5
808 1 1 -47.5 2.5 20
809 1 1 -47.5 2.5 22.5
810 1 1 -47.5 2.5 25
811 1 1 -47.5 2.5 27.5
812 1 1 -47.5 2.5 30
813 1 1 -47.5 2.5 32.5
814 1 1 -47.5 2.5 35
815 1 1 -47.5 2.5 37.5
816 1 1 -47.5 2.5 40
817 1 1 -47.5 2.5 42.5
818 1 1 -47.5 2.5 45
819 1 1 -47.5 2.5 47.5
820 1 1 -47.5 5 47.5
821 1 1 -47.5 5 45
822 1 1 -47.5 5 42.5
823 1 1 -47.5 5 40
824 1 1 -47.5 5 37.5
825 1 1 -47.5 5 35
826 1 1 -47.5 5 32.5
827 1 1 -47.5 5 30
828 1 1 -47.5 5 27.5
829 1 1 -47.5 5 25
830 1 1 -47.5 5 22.5
831 1 1 -47.5 5 20
832 1 1 -47.5 5 17.5
833 1 1 -47.5 5 15
834 1 1 -47.5 5 12.5
835 1 1 -47.5 5 10
836 1 1 -47.5 5 7.5
837 1 1 -47.5 5 5
838 1 1 -47.5 5 2.5
839 1 1 -47.5 5 0
840 1 1 -47.5 5 -2.5
841 1 1 -47.5 5 -5
842 1 1 -47.5 5 -7.5
843 1 1 -47.5 5 -10
844 1 1 -47.5 5 -12.5
845 1 1 -47.5 5 -15
846 1 1 -47.5 5 -17.5
847 1 1 -47.5 5 -20
848 1 1 -47.5 5 -22.5
849 1 1 -47.5 5 -25
850 1 1 -47.5 5 -27.5
851 1 1 -47.5 5 -30
852 1 1 -47.5 5 -32.5
853 1 1 -47.5 5 -35
854 1 1 -47.5 5 -37.5
855 1 1 -47.5 5 -40
856 1 1 -47.5 5 -42.5
857 1 1 -47.5 5 -45
858 1 1 -47.5 5 -47.5
859 1 1 -47.5 7.5 -47.5
860 1 1 -47.5 7.5 -45
861 1 1 -47.5 7.5 -42.5
862 1 1 -47.5 7.5 -40
863 1 1 -47.5 7.5 -37.5
864 1 1 -47.5 7.5 -35
865 1 1 -47.5 7.5 -32.5
866 1 1 -47.5 7.5 -30
867 1 1 -47.5 7.5 -27.5
868 1 1 -47.5 7.5 -25
869 1 1 -47.5 7.5 -22.5
870 1 1 -47.5 7.5 -20
871 1 1 -47.5 7.5 -17.5
872 1 1 -47.5 7.5 -15
873 1 1 -47.5 7.5 -12.5
874 1 1 -47.5 7.5 -10
875 1 1 -47.5 7.5 -7.5
876 1 1 -47.5 7.5 -5
877 1 1 -47.5 7.5 -2.5
878 1 1 -47.5 7.5 0
879 1 1 -47.5 7.5 2.5
880 1 1 -47.5 7.5 5
881 1 1 -47.5 7.5 7.5
882 1 1 -47.5 7.5 10
883 1 1 -47.5 7.5 12.5
884 1 1 -47.5 7.5 15
885 1 1 -47.5 7.5 17.5
886 1 1 -47.5 7.5 20
887 1 1 -47.5 7.5 22.5
888 1 1 -47.5 7.5 25
889 1 1 -47.5 7.5 27.5
890 1 1 -47.5 7.5 30
891 1 1 -47.5 7.5 32.5
892 1 1 -47.5 7.5 35
893 1 1 -47.5 7.5 37.5
894 1 1 -47.5 7.5 40
895 1 1 -47.5 7.5 42.5
896 1 1 -47.5 7.5 45
897 1 1 -47.5 7.5 47.5
898 1 1 -47.5 10 47.5
899 1 1 -47.5 10 45
900 1 1 -47.5 10 42.5
901 1 1 -47.5 10 40
902 1 1 -47.5 10 37.5
903 1 1 -47.5 10 35
904 1 1 -47.5 10 32.5
905 1 1 -47.5 10 30
906 1 1 -47.5 10 27.5
907 1 1 -47.5 10 25
908 1 1 -47.5 10 22.5
909 1 1 -47.5 10 20
910 1 1 -47.5 10 17.5
911 1 1 -47.5 10 15
912 1 1 -47.5 10 12.5
913 1 1 -47.5 10 10
914 1 1 -47.5 10 7.5
915 1 1 -47.5 10 5
916 1 1 -47.5 10 2.5
917 1 1 -47.5 10 0
918 1 1 -47.5 10 -2.5
919 1 1 -47.5 10 -5
920 1 1 -47.5 10 -7.5
921 1 1 -47.5 10 -10
922 1 1 -47.5 10 -12.5
923 1 1 -47.5 10 -15
924 1 1 -47.5 10 -17.5
925 1 1 -47.5 10 -20
926 1 1 -47.5 10 -22.5
927 1 1 -47.5 10 -25
928 1 1 -47.5 10 -27.5
929 1 1 -47.5 10 -30
930 1 1 -47.5 10 -32.5
931 1 1 -47.5 10 -35
932 1 1 -47.5 10 -37.5
933 1 1 -47.5 10 -40
934 1 1 -47.5 10 -42.5
935 1 1 -47.5 10 -45
936 1 1 -47.5 10 -47.5
937 1 1 -47.5 12.5 -47.5
938 1 1 -47.5 12.5 -45
939 1 1 -47.5 12.5 -42.5
940 1 1 -47.5 12.5 -40
941 1 1 -47.5 12.5 -37.5
942 1 1 -47.5 12.5 -35
943 1 1 -47.5 12.5 -32.5
944 1 1 -47.5 12.5 -30
945 1 1 -47.5 12.5 -27.5
946 1 1 -47.5 12.5 -25
947 1 1 -47.5 12.5 -22.5
948 1 1 -47.5 12.5 -20
949 1 1 -47.5 12.5 -17.5
950 1 1 -47.5 12.5 -15
951 1 1 -47.5 12.5 -12.5
952 1 1 -47.5 12.5 -10
953 1 1 -47.5 12.5 -7.5
954 1 1 -47.5 12.5 -5
955 1 1 -47.5 12.5 -2.5
956 1 1 -47.5 12.5 0
957 1 1 -47.5 12.5 2.5
958 1 1 -47.5 12.5 5
959 1 1 -47.5 12.5 7.5
960 1 1 -47.5 12.5 10
961 1 1 -47.5 12.5 12.5
962 1 1 -47.5 12.5 15
963 1 1 -47.5 12.5 17.5
964 1 1 -47.5 12.5 20
965 1 1 -47.5 12.5 22.5
966 1 1 -47.5 12.5 25
967 1 1 -47.5 12.5 27.5
968 1 1 -47.5 12.5 30
969 1 1 -47.5 12.5 32.5
970 1 1 -47.5 12.5 35
971 1 1 -47.5 12.5 37.5
972 1 1 -47.5 12.5 40
973 1 1 -47.5 12.5 42.5
974 1 1 -47.5 12.5 45
975 1 1 -47.5 12.5 47.5
976 1 1 -47.5 15 47.5
977 1 1 -47.5 15 45
978 1 1 -47.5 15 42.5
979 1 1 -47.5 15 40
980 1 1 -47.5 15 37.5
981 1 1 -47.5 15 35
982 1 1 -47.5 15 32.5
983 1 1 -47.5 15 30
984 1 1 -47.5 15 27.5
985 1 1 -47.5 15 25
986 1 1 -47.5 15 22.5
987 1 1 -47.5 15 20
988 1 1 -47.5 15 17.5
989 1 1 -47.5 15 15
990 1 1 -47.5 15 12.5
991 1 1 -47.5 15 10
992 1 1 -47.5 15 7.5
993 1 1 -47.5 15 5
994 1 1 -47.5 15 2.5
995 1 1 -47.5 15 0
996 1 1 -47.5 15 -2.5
997 1 1 -47.5 15 -5
998 1 1 -47.5 15 -7.5
999 1 1 -47.5 15 -10
1000 1 1 -47.5 15 -12.5
1001 1 1 -47.5 15 -15
1002 1 1 -47.5 15 -17.5
1003 1 1 -47.5 15 -20
1004 1 1 -47.5 15 -22.5
1005 1 1 -47.5 15 -25
1006 1 1 -47.5 15 -27.5
1007 1 1 -47.5 15 -30
1008 1 1 -47.5 15 -32.5
1009 1 1 -47.5 15 -35
1010 1 1 -47.5 15 -37.5
1011 1 1 -47.5 15 -40
1012 1 1 -47.5 15 -42.5
1013 1 1 -47.5 15 -45
1014 1 1 -47.5 15 -47.5
1015 1 1 -47.5 17.5 -47.5
1016 1 1 -47.5 17.5 -45
1017 1 1 -47.5 17.5 -42.5
1018 1 1 -47.5 17.5 -40
1019 1 1 -47.5 17.5 -37.5
1020 1 1 -47.5 17.5 -35
1021 1 1 -47.5 17.5 -32.5
1022 1 1 -47.5 17.5 -30
1023 1 1 -47.5 17.5 -27.5
1024 1 1 -47.5 17.5 -25
1025 1 1 -47.5 17.5 -22.5
1026 1 1 -47.5 17.5 -20
1027 1 1 -47.5 17.5 -17.5
1028 1 1 -47.5 17.5 -15
1029 1 1 -47.5 17.5 -12.5
1030 1 1 -47.5 17.5 -10
1031 1 1 -47.5 17.5 -7.5
1032 1 1 -47.5 17.5 -5
1033 1 1 -47.5 17.5 -2.5
1034 1 1 -47.5 17.5 0
1035 1 1 -47.5 17.5 2.5
1036 1 1 -47.5 17.5 5
1037 1 1 -47.5 17.5 7.5
1038 1 1 -47.5 17.5 10
1039 1 1 -47.5 17.5 12.5
1040 1 1 -47.5 17.5 15
1041 1 1 -47.5 17.5 17.5
1042 1 1 -47.5 17.5 20
1043 1 1 -47.5 17.5 22.5
1044 1 1 -47.5 17.5 25
1045 1 1 -47.5 17.5 27.5
1046 1 1 -47.5 17.5 30
1047 1 1 -47.5 17.5 32.5
1048 1 1 -47.5 17.5 35
1049 1 1 -47.5 17.5 37.5
1050 1 1 -47.5 17.5 40
1051 1 1 -47.5 17.5 42.5
1052 1 1 -47.5 17.5 45
1053 1 1 -47.5 17.5 47.5
1054 1 1 -47.5 20 47.5
1055 1 1 -47.5 20 45
1056 1 1 -47.5 20 42.5
1057 1 1 -47.5 20 40
1058 1 1 -47.5 20 37.5
1059 1 1 -47.5 20 35
1060 1 1 -47.5 20 32.5
1061 1 1 -47.5 20 30
1062 1 1 -47.5 20 27.5
1063 1 1 -47.5 20 25
1064 1 1 -47.5 20 22.5
1065 1 1 -47.5 20 20
1066 1 1 -47.5 20 17.5
1067 1 1 -47.5 20 15
1068 1 1 -47.5 20 12.5
1069 1 1 -47.5 20 10
1070 1 1 -47.5 20 7.5
1071 1 1 -47.5 20 5
1072 1 1 -47.5 20 2.5
1073 1 1 -47.5 20 0
1074 1 1 -47.5 20 -2.5
1075 1 1 -47.5 20 -5
1076 1 1 -47.5 20 -7.5
1077 1 1 -47.5 20 -10
1078 1 1 -47.5 20 -12.5
1079 1 1 -47.5 20 -15
1080 1 1 -47.5 20 -17.5
1081 1 1 -47.5 20 -20
1082 1 1 -47.5 20 -22.5
1083 1 1 -47.5 20 -25
1084 1 1 -47.5 20 -27.5
1085 1 1 -47.5 20 -30
1086 1 1 -47.5 20 -32.5
1087 1 1 -47.5 20 -35
1088 1 1 -47.5 20 -37.5
1089 1 1 -47.5 20 -40
1090 1 1 -47.5 20 -42.5
1091 1 1 -47.5 20 -45
1092 1 1 -47.5 20 -47.5
1093 1 1 -47.5 22.5 -47.5
1094 1 1 -47.5 22.5 -45
1095 1 1 -47.5 22.5 -42.5
1096 1 1 -47.5 22.5 -40
1097 1 1 -47.5 22.5 -37.5
1098 1 1 -47.5 22.5 -35
1099 1 1 -47.5 22.5 -32.5
1100 1 1 -47.5 22.5 -30
1101 1 1 -47.5 22.5 -27.5
1102 1 1 -47.5 22.5 -25
1103 1 1 -47.5 22.5 -22.5
1104 1 1 -47.5 22.5 -20
1105 1 1 -47.5 22.5 -17.5
1106 1 1 -47.5 22.5 -15
1107 1 1 -47.5 22.5 -12.5
1108 1 1 -47.5 22.5 -10
1109 1 1 -47.5 22.5 -7.5
1110 1 1 -47.5 22.5 -5
1111 1 1 -47.5 22.5 -2.5
1112 1 1 -47.5 22.5 0
1113 1 1 -47.5 22.5 2.5
1114 1 1 -47.5 22.5 5
1115 1 1 -47.5 22.5 7.5
1116 1 1 -47.5 22.5 10
1117 1 1 -47.5 22.5 12.5
1118 1 1 -47.5 22.5 15
1119 1 1 -47.5 22.5 17.5
1120 1 1 -47.5 22.5 20
1121 1 1 -47.5 22.5 22.5
1122 1 1 -47.5 22.5 25
1123 1 1 -47.5 22.5 27.5
1124 1 1 -47.5 22.5 30
1125 1 1 -47.5 22.5 32.5
1126 1 1 -47.5 22.5 35
1127 1 1 -47.5 22.5 37.5
1128 1 1 -47.5 22.5 40
1129 1 1 -47.5 22.5 42.5
1130 1 1 -47.5 22.5 45
1131 1 1 -47.5 22.5 47.5
1132 1 1 -47.5 25 47.5
1133 1 1 -47.5 25 45
1134 1 1 -47.5 25 42.5
1135 1 1 -47.5 25 40
1136 1 1 -47.5 25 37.5
1137 1 1 -47.5 25 35
1138 1 1 -47.5 25 32.5
1139 1 1 -47.5 25 30
1140 1 1 -47.5 25 27.5
1141 1 1 -47.5 25 25
1142 1 1 -47.5 25 22.5
1143 1 1 -47.5 25 20
1144 1 1 -47.5 25 17.5
1145 1 1 -47.5 25 15
1146 1 1 -47.5 25 12.5
1147 1 1 -47.5 25 10
1148 1 1 -47.5 25 7.5
1149 1 1 -47.5 25 5
1150 1 1 -47.5 25 2.5
1151 1 1 -47.5 25 0
1152 1 1 -47.5 25 -2.5
1153 1 1 -47.5 25 -5
1154 1 1 -47.5 25 -7.5
1155 1 1 -47.5 25 -10
1156 1 1 -47.5 25 -12.5
1157 1 1 -47.5 25 -15
1158 1 1 -47.5 25 -17.5
1159 1 1 -47.5 25 -20
1160 1 1 -47.5 25 -22.5
1161 1 1 -47.5 25 -25
1162 1 1 -47.5 25 -27.5
1163 1 1 -47.5 25 -30
1164 1 1 -47.5 25 -32.5
1165 1 1 -47.5 25 -35
1166 1 1 -47.5 25 -37.5
1167 1 1 -47.5 25 -40
1168 1 1 -47.5 25 -42.5
1169 1 1 -47.5 25 -45
1170 1 1 -47.5 25 -47.5
1171 1 1 -47.5 27.5 -47.5
1172 1 1 -47.5 27.5 -45
1173 1 1 -47.5 27.5 -42.5
1174 1 1 -47.5 27.5 -40
1175 1 1 -47.5 27.5 -37.5
1176 1 1 -47.5 27.5 -35
1177 1 1 -47.5 27.5 -32.5
1178 1 1 -47.5 27.5 -30
1179 1 1 -47.5 27.5 -27.5
1180 1 1 -47.5 27.5 -25
1181 1 1 -47.5 27.5 -22.5
1182 1 1 -47.5 27.5 -20
1183 1 1 -47.5 27.5 -17.5
1184 1 1 -47.5 27.5 -15
1185 1 1 -47.5 27.5 -12.5
1186 1 1 -47.5 27.5 -10
1187 1 1 -47.5 27.5 -7.5
1188 1 1 -47.5 27.5 -5
1189 1 1 -47.5 27.5 -2.5
1190 1 1 -47.5 27.5 0
1191 1 1 -47.5 27.5 2.5
1192 1 1 -47.5 27.5 5
1193 1 1 -47.5 27.5 7.5
1194 1 1 -47.5 27.5 10
1195 1 1 -47.5 27.5 12.5
1196 1 1 -47.5 27.5 15
1197 1 1 -47.5 27.5 17.5
1198 1 1 -47.5 27.5 20
1199 1 1 -47.5 27.5 22.5
1200 1 1 -47.5 27.5 25
1201 1 1 -47.5 27.5 27.5
1202 1 1 -47.5 27.5 30
1203 1 1 -47.5 27.5 32.5
1204 1 1 -47.5 27.5 35
1205 1 1 -47.5 27.5 37.5
1206 1 1 -47.5 27.5 40
1207 1 1 -47.5 27.5 42.5
1208 1 1 -47.5 27.5 45
1209 1 1 -47.5 27.5 47.5
1210 1 1 -47.5 30 47.5
1211 1 1 -47.5 30 45
1212 1 1 -47.5 30 42.5
1213 1 1 -47.5 30 40
1214 1 1 -47.5 30 37.5
1215 1 1 -47.5 30 35
1216 1 1 -47.5 30 32.5
1217 1 1 -47.5 30 30
1218 1 1 -47.5 30 27.5
1219 1 1 -47.5 30 25
1220 1 1 -47.5 30 22.5
1221 1 1 -47.5 30 20
1222 1 1 -47.5 30 17.5
1223 1 1 -47.5 30 15
1224 1 1 -47.5 30 12.5
1225 1 1 -47.5 30 10
1226 1 1 -47.5 30 7.5
1227 1 1 -47.5 30 5
1228 1 1 -47.5 30 2.5
1229 1 1 -47.5 30 0
1230 1 1 -47.5 30 -2.5
1231 1 1 -47.5 30 -5
1232 1 1 -47.5 30 -7.5
1233 1 1 -47.5 30 -10
1234 1 1 -47.5 30 -12.5
1235 1 1 -47.5 30 -15
1236 1 1 -47.5 30 -17.5
1237 1 1 -47.5 30 -20
1238 1 1 -47.5 30 -22.5
1239 1 1 -47.5 30 -25
1240 1 1 -47.5 30 -27.5
1241 1 1 -47.5 30 -30
1242 1 1 -47.5 30 -32.5
1243 1 1 -47.5 30 -35
1244 1 1 -47.5 30 -37.5
1245 1 1 -47.5 30 -40
1246 1 1 -47.5 30 -42.5
1247 1 1 -47.5 30 -45
1248 1 1 -47.5 30 -47.5
1249 1 1 -47.5 32.5 -47.5
1250 1 1 -47.5 32.5 -45
1251 1 1 -47.5 32.5 -42.5
1252 1 1 -47.5 32.5 -40
1253 1 1 -47.5 32.5 -37.5
1254 1 1 -47.5 32.5 -35
1255 1 1 -47.5 32.5 -32.5
1256 1 1 -47.5 32.5 -30
1257 1 1 -47.5 32.5 -27.5
1258 1 1 -47.5 32.5 -25
1259 1 1 -47.5 32.5 -22.5
1260 1 1 -47.5 32.5 -20
1261 1 1 -47.5 32.5 -17.5
1262 1 1 -47.5 32.5 -15
1263 1 1 -47.5 32.5 -12.5
1264 1 1 -47.5 32.5 -10
1265 1 1 -47.5 32.5 -7.5
1266 1 1 -47.5 32.5 -5
1267 1 1 -47.5 32.5 -2.5
1268 1 1 -47.5 32.5 0
1269 1 1 -47.5 32.5 2.5
1270 1 1 -47.5 32.5 5
1271 1 1 -47.5 32.5 7.5
1272 1 1 -47.5 32.5 10
1273 1 1 -47.5 32.5 12.5
1274 1 1 -47.5 32.5 15
1275 1 1 -47.5 32.5 17.5
1276 1 1 -47.5 32.5 20
1277 1 1 -47.5 32.5 22.5
1278 1 1 -47.5 32.5 25
1279 1 1 -47.5 32.5 27.5
1280 1 1 -47.5 32.5 30
1281 1 1 -47.5 32.5 32.5
1282 1 1 -47.5 32.5 35
1283 1 1 -47.5 32.5 37.5
1284 1 1 -47.5 32.5 40
1285 1 1 -47.5 32.5 42.5
1286 1 1 -47.5 32.5 45
1287 1 1 -47.5 32.5 47.5
1288 1 1 -47.5 35 47.5
1289 1 1 -47.5 35 45
1290 1 1 -47.5 35 42.5
1291 1 1 -47.5 35 40
1292 1 1 -47.5 35 37.5
1293 1 1 -47.5 35 35
1294 1 1 -47.5 35 32.5
1295 1 1 -47.5 35 30
1296 1 1 -47.5 35 27.5
1297 1 1 -47.5 35 25
1298 1 1 -47.5 35 22.5
1299 1 1 -47.5 35 20
1300 1 1 -47.5 35 17.5