ITEM: TIMESTEP
0
ITEM: NUMBER OF ATOMS
150000
ITEM: BOX BOUNDS pp pp pp
-2.5000000000000000e+01 2.5000000000000000e+01
-2.5000000000000000e+01 2.5000000000000000e+01
-2.5000000000000000e+01 2.5000000000000000e+01
ITEM: ATOMS id x y z
1 -23.75 -23.75 -23.75
11858 -23.125 -23.75 -23.75
11859 -22.5 -23.75 -23.75
23716 -21.875 -23.75 -23.75
23717 -21.25 -23.75 -23.75
35574 -20.625 -23.75 -23.75
35575 -20 -23.75 -23.75
47432 -19.375 -23.75 -23.75
47433 -18.75 -23.75 -23.75
59290 -18.125 -23.75 -23.75
59291 -17.5 -23.75 -23.75
71148 -16.875 -23.75 -23.75
71149 -16.25 -23.75 -23.75
83006 -15.625 -23.75 -23.75
83007 -15 -23.75 -23.75
94864 -14.375 -23.75 -23.75
94865 -13.75 -23.75 -23.75
106722 -13.125 -23.75 -23.75
106723 -12.5 -23.75 -23.75
118580 -11.875 -23.75 -23.75
118581 -11.25 -23.75 -23.75
130438 -10.625 -23.75 -23.75
130439 -10 -23.75 -23.75
142296 -9.375 -23.75 -23.75
142297 -8.75 -23.75 -23.75
154 -23.75 -23.125 -23.75
155 -23.75 -22.5 -23.75
11704 -23.125 -22.5 -23.75
11705 -23.125 -23.125 -23.75
12012 -22.5 -23.125 -23.75
12013 -22.5 -22.5 -23.75
23562 -21.875 -22.5 -23.75
23563 -21.875 -23.125 -23.75
23870 -21.25 -23.125 -23.75
23871 -21.25 -22.5 -23.75
35420 -20.625 -22.5 -23.75
35421 -20.625 -23.125 -23.75
35728 -20 -23.125 -23.75
35729 -20 -22.5 -23.75
47278 -19.375 -22.5 -23.75
47279 -19.375 -23.125 -23.75
47586 -18.75 -23.125 -23.75
47587 -18.75 -22.5 -23.75
59136 -18.125 -22.5 -23.75
59137 -18.125 -23.125 -23.75
59444 -17.5 -23.125 -23.75
59445 -17.5 -22.5 -23.75
70994 -16.875 -22.5 -23.75
70995 -16.875 -23.125 -23.75
71302 -16.25 -23.125 -23.75
71303 -16.25 -22.5 -23.75
82852 -15.625 -22.5 -23.75
82853 -15.625 -23.125 -23.75
83160 -15 -23.125 -23.75
83161 -15 -22.5 -23.75
94710 -14.375 -22.5 -23.75
94711 -14.375 -23.125 -23.75
95018 -13.75 -23.125 -23.75
95019 -13.75 -22.5 -23.75
106568 -13.125 -22.5 -23.75
106569 -13.125 -23.125 -23.75
106876 -12.5 -23.125 -23.75
106877 -12.5 -22.5 -23.75
118426 -11.875 -22.5 -23.75
118427 -11.875 -23.125 -23.75
118734 -11.25 -23.125 -23.75
118735 -11.25 -22.5 -23.75
130284 -10.625 -22.5 -23.75
130285 -10.625 -23.125 -23.75
130592 -10 -23.125 -23.75
130593 -10 -22.5 -23.75
142142 -9.375 -22.5 -23.75
142143 -9.375 -23.125 -23.75
142450 -8.75 -23.125 -23.75
142451 -8.75 -22.5 -23.75
308 -23.75 -21.875 -23.75
309 -23.75 -21.25 -23.75
462 -23.75 -20.625 -23.75
11397 -23.125 -20.625 -23.75
11550 -23.125 -21.25 -23.75
11551 -23.125 -21.875 -23.75
12166 -22.5 -21.875 -23.75
12167 -22.5 -21.25 -23.75
12320 -22.5 -20.625 -23.75
23255 -21.875 -20.625 -23.75
23408 -21.875 -21.25 -23.75
23409 -21.875 -21.875 -23.75
24024 -21.25 -21.875 -23.75
24025 -21.25 -21.25 -23.75
24178 -21.25 -20.625 -23.75
35113 -20.625 -20.625 -23.75
35266 -20.625 -21.25 -23.75
35267 -20.625 -21.875 -23.75
35882 -20 -21.875 -23.75
35883 -20 -21.25 -23.75
36036 -20 -20.625 -23.75
46971 -19.375 -20.625 -23.75
47124 -19.375 -21.25 -23.75
47125 -19.375 -21.875 -23.75
47740 -18.75 -21.875 -23.75
47741 -18.75 -21.25 -23.75
47894 -18.75 -20.625 -23.75
58829 -18.125 -20.625 -23.75
58982 -18.125 -21.25 -23.75
58983 -18.125 -21.875 -23.75
59598 -17.5 -21.875 -23.75
59599 -17.5 -21.25 -23.75
59752 -17.5 -20.625 -23.75
70687 -16.875 -20.625 -23.75
70840 -16.875 -21.25 -23.75
70841 -16.875 -21.875 -23.75
71456 -16.25 -21.875 -23.75
71457 -16.25 -21.25 -23.75
71610 -16.25 -20.625 -23.75
82545 -15.625 -20.625 -23.75
82698 -15.625 -21.25 -23.75
82699 -15.625 -21.875 -23.75
83314 -15 -21.875 -23.75
83315 -15 -21.25 -23.75
83468 -15 -20.625 -23.75
94403 -14.375 -20.625 -23.75
94556 -14.375 -21.25 -23.75
94557 -14.375 -21.875 -23.75
95172 -13.75 -21.875 -23.75
95173 -13.75 -21.25 -23.75
95326 -13.75 -20.625 -23.75
106261 -13.125 -20.625 -23.75
106414 -13.125 -21.25 -23.75
106415 -13.125 -21.875 -23.75
107030 -12.5 -21.875 -23.75
107031 -12.5 -21.25 -23.75
107184 -12.5 -20.625 -23.75
118119 -11.875 -20.625 -23.75
118272 -11.875 -21.25 -23.75
118273 -11.875 -21.875 -23.75
118888 -11.25 -21.875 -23.75
118889 -11.25 -21.25 -23.75
119042 -11.25 -20.625 -23.75
129977 -10.625 -20.625 -23.75
130130 -10.625 -21.25 -23.75
130131 -10.625 -21.875 -23.75
130746 -10 -21.875 -23.75
130747 -10 -21.25 -23.75
130900 -10 -20.625 -23.75
141835 -9.375 -20.625 -23.75
141988 -9.375 -21.25 -23.75
141989 -9.375 -21.875 -23.75
142604 -8.75 -21.875 -23.75
142605 -8.75 -21.25 -23.75
142758 -8.75 -20.625 -23.75
463 -23.75 -20 -23.75
616 -23.75 -19.375 -23.75
11243 -23.125 -19.375 -23.75
11396 -23.125 -20 -23.75
12321 -22.5 -20 -23.75
12474 -22.5 -19.375 -23.75
23101 -21.875 -19.375 -23.75
23254 -21.875 -20 -23.75
24179 -21.25 -20 -23.75
24332 -21.25 -19.375 -23.75
34959 -20.625 -19.375 -23.75
35112 -20.625 -20 -23.75
36037 -20 -20 -23.75
36190 -20 -19.375 -23.75
46817 -19.375 -19.375 -23.75
46970 -19.375 -20 -23.75
47895 -18.75 -20 -23.75
48048 -18.75 -19.375 -23.75
58675 -18.125 -19.375 -23.75
58828 -18.125 -20 -23.75
59753 -17.5 -20 -23.75
59906 -17.5 -19.375 -23.75
70533 -16.875 -19.375 -23.75
70686 -16.875 -20 -23.75
71611 -16.25 -20 -23.75
71764 -16.25 -19.375 -23.75
82391 -15.625 -19.375 -23.75
82544 -15.625 -20 -23.75
83469 -15 -20 -23.75
83622 -15 -19.375 -23.75
94249 -14.375 -19.375 -23.75
94402 -14.375 -20 -23.75
95327 -13.75 -20 -23.75
95480 -13.75 -19.375 -23.75
106107 -13.125 -19.375 -23.75
106260 -13.125 -20 -23.75
107185 -12.5 -20 -23.75
107338 -12.5 -19.375 -23.75
117965 -11.875 -19.375 -23.75
118118 -11.875 -20 -23.75
119043 -11.25 -20 -23.75
119196 -11.25 -19.375 -23.75
129823 -10.625 -19.375 -23.75
129976 -10.625 -20 -23.75
130901 -10 -20 -23.75
131054 -10 -19.375 -23.75
141681 -9.375 -19.375 -23.75
141834 -9.375 -20 -23.75
142759 -8.75 -20 -23.75
142912 -8.75 -19.375 -23.75
617 -23.75 -18.75 -23.75
770 -23.75 -18.125 -23.75
771 -23.75 -17.5 -23.75
11088 -23.125 -17.5 -23.75
11089 -23.125 -18.125 -23.75
11242 -23.125 -18.75 -23.75
12475 -22.5 -18.75 -23.75
12628 -22.5 -18.125 -23.75
12629 -22.5 -17.5 -23.75
22946 -21.875 -17.5 -23.75
22947 -21.875 -18.125 -23.75
23100 -21.875 -18.75 -23.75
24333 -21.25 -18.75 -23.75
24486 -21.25 -18.125 -23.75
24487 -21.25 -17.5 -23.75
34804 -20.625 -17.5 -23.75
34805 -20.625 -18.125 -23.75
34958 -20.625 -18.75 -23.75
36191 -20 -18.75 -23.75
36344 -20 -18.125 -23.75
36345 -20 -17.5 -23.75
46662 -19.375 -17.5 -23.75
46663 -19.375 -18.125 -23.75
46816 -19.375 -18.75 -23.75
48049 -18.75 -18.75 -23.75
48202 -18.75 -18.125 -23.75
48203 -18.75 -17.5 -23.75
58520 -18.125 -17.5 -23.75
58521 -18.125 -18.125 -23.75
58674 -18.125 -18.75 -23.75
59907 -17.5 -18.75 -23.75
60060 -17.5 -18.125 -23.75
60061 -17.5 -17.5 -23.75
70378 -16.875 -17.5 -23.75
70379 -16.875 -18.125 -23.75
70532 -16.875 -18.75 -23.75
71765 -16.25 -18.75 -23.75
71918 -16.25 -18.125 -23.75
71919 -16.25 -17.5 -23.75
82236 -15.625 -17.5 -23.75
82237 -15.625 -18.125 -23.75
82390 -15.625 -18.75 -23.75
83623 -15 -18.75 -23.75
83776 -15 -18.125 -23.75
83777 -15 -17.5 -23.75
94094 -14.375 -17.5 -23.75
94095 -14.375 -18.125 -23.75
94248 -14.375 -18.75 -23.75
95481 -13.75 -18.75 -23.75
95634 -13.75 -18.125 -23.75
95635 -13.75 -17.5 -23.75
105952 -13.125 -17.5 -23.75
105953 -13.125 -18.125 -23.75
106106 -13.125 -18.75 -23.75
107339 -12.5 -18.75 -23.75
107492 -12.5 -18.125 -23.75
107493 -12.5 -17.5 -23.75
117810 -11.875 -17.5 -23.75
117811 -11.875 -18.125 -23.75
117964 -11.875 -18.75 -23.75
119197 -11.25 -18.75 -23.75
119350 -11.25 -18.125 -23.75
119351 -11.25 -17.5 -23.75
129668 -10.625 -17.5 -23.75
129669 -10.625 -18.125 -23.75
129822 -10.625 -18.75 -23.75
131055 -10 -18.75 -23.75
131208 -10 -18.125 -23.75
131209 -10 -17.5 -23.75
141526 -9.375 -17.5 -23.75
141527 -9.375 -18.125 -23.75
141680 -9.375 -18.75 -23.75
142913 -8.75 -18.75 -23.75
143066 -8.75 -18.125 -23.75
143067 -8.75 -17.5 -23.75
924 -23.75 -16.875 -23.75
925 -23.75 -16.25 -23.75
10934 -23.125 -16.25 -23.75
10935 -23.125 -16.875 -23.75
12782 -22.5 -16.875 -23.75
12783 -22.5 -16.25 -23.75
22792 -21.875 -16.25 -23.75
22793 -21.875 -16.875 -23.75
24640 -21.25 -16.875 -23.75
24641 -21.25 -16.25 -23.75
34650 -20.625 -16.25 -23.75
34651 -20.625 -16.875 -23.75
36498 -20 -16.875 -23.75
36499 -20 -16.25 -23.75
46508 -19.375 -16.25 -23.75
46509 -19.375 -16.875 -23.75
48356 -18.75 -16.875 -23.75
48357 -18.75 -16.25 -23.75
58366 -18.125 -16.25 -23.75
58367 -18.125 -16.875 -23.75
60214 -17.5 -16.875 -23.75
60215 -17.5 -16.25 -23.75
70224 -16.875 -16.25 -23.75
70225 -16.875 -16.875 -23.75
72072 -16.25 -16.875 -23.75
72073 -16.25 -16.25 -23.75
82082 -15.625 -16.25 -23.75
82083 -15.625 -16.875 -23.75
83930 -15 -16.875 -23.75
83931 -15 -16.25 -23.75
93940 -14.375 -16.25 -23.75
93941 -14.375 -16.875 -23.75
95788 -13.75 -16.875 -23.75
95789 -13.75 -16.25 -23.75
105798 -13.125 -16.25 -23.75
105799 -13.125 -16.875 -23.75
107646 -12.5 -16.875 -23.75
107647 -12.5 -16.25 -23.75
117656 -11.875 -16.25 -23.75
117657 -11.875 -16.875 -23.75
119504 -11.25 -16.875 -23.75
119505 -11.25 -16.25 -23.75
129514 -10.625 -16.25 -23.75
129515 -10.625 -16.875 -23.75
131362 -10 -16.875 -23.75
131363 -10 -16.25 -23.75
141372 -9.375 -16.25 -23.75
141373 -9.375 -16.875 -23.75
143220 -8.75 -16.875 -23.75
143221 -8.75 -16.25 -23.75
1078 -23.75 -15.625 -23.75
1079 -23.75 -15 -23.75
1232 -23.75 -14.375 -23.75
10627 -23.125 -14.375 -23.75
10780 -23.125 -15 -23.75
10781 -23.125 -15.625 -23.75
12936 -22.5 -15.625 -23.75
12937 -22.5 -15 -23.75
13090 -22.5 -14.375 -23.75
22485 -21.875 -14.375 -23.75
22638 -21.875 -15 -23.75
22639 -21.875 -15.625 -23.75
24794 -21.25 -15.625 -23.75
24795 -21.25 -15 -23.75
24948 -21.25 -14.375 -23.75
34343 -20.625 -14.375 -23.75
34496 -20.625 -15 -23.75
34497 -20.625 -15.625 -23.75
36652 -20 -15.625 -23.75
36653 -20 -15 -23.75
36806 -20 -14.375 -23.75
46201 -19.375 -14.375 -23.75
46354 -19.375 -15 -23.75
46355 -19.375 -15.625 -23.75
48510 -18.75 -15.625 -23.75
48511 -18.75 -15 -23.75
48664 -18.75 -14.375 -23.75
58059 -18.125 -14.375 -23.75
58212 -18.125 -15 -23.75
58213 -18.125 -15.625 -23.75
60368 -17.5 -15.625 -23.75
60369 -17.5 -15 -23.75
60522 -17.5 -14.375 -23.75
69917 -16.875 -14.375 -23.75
70070 -16.875 -15 -23.75
70071 -16.875 -15.625 -23.75
72226 -16.25 -15.625 -23.75
72227 -16.25 -15 -23.75
72380 -16.25 -14.375 -23.75
81775 -15.625 -14.375 -23.75
81928 -15.625 -15 -23.75
81929 -15.625 -15.625 -23.75
84084 -15 -15.625 -23.75
84085 -15 -15 -23.75
84238 -15 -14.375 -23.75
93633 -14.375 -14.375 -23.75
93786 -14.375 -15 -23.75
93787 -14.375 -15.625 -23.75
95942 -13.75 -15.625 -23.75
95943 -13.75 -15 -23.75
96096 -13.75 -14.375 -23.75
105491 -13.125 -14.375 -23.75
105644 -13.125 -15 -23.75
105645 -13.125 -15.625 -23.75
107800 -12.5 -15.625 -23.75
107801 -12.5 -15 -23.75
107954 -12.5 -14.375 -23.75
117349 -11.875 -14.375 -23.75
117502 -11.875 -15 -23.75
117503 -11.875 -15.625 -23.75
119658 -11.25 -15.625 -23.75
119659 -11.25 -15 -23.75
119812 -11.25 -14.375 -23.75
129207 -10.625 -14.375 -23.75
129360 -10.625 -15 -23.75
129361 -10.625 -15.625 -23.75
131516 -10 -15.625 -23.75
131517 -10 -15 -23.75
131670 -10 -14.375 -23.75
141065 -9.375 -14.375 -23.75
141218 -9.375 -15 -23.75
141219 -9.375 -15.625 -23.75
143374 -8.75 -15.625 -23.75
143375 -8.75 -15 -23.75
143528 -8.75 -14.375 -23.75
1233 -23.75 -13.75 -23.75
1386 -23.75 -13.125 -23.75
10473 -23.125 -13.125 -23.75
10626 -23.125 -13.75 -23.75
13091 -22.5 -13.75 -23.75
13244 -22.5 -13.125 -23.75
22331 -21.875 -13.125 -23.75
22484 -21.875 -13.75 -23.75
24949 -21.25 -13.75 -23.75
25102 -21.25 -13.125 -23.75
34189 -20.625 -13.125 -23.75
34342 -20.625 -13.75 -23.75
36807 -20 -13.75 -23.75
36960 -20 -13.125 -23.75
46047 -19.375 -13.125 -23.75
46200 -19.375 -13.75 -23.75
48665 -18.75 -13.75 -23.75
48818 -18.75 -13.125 -23.75
57905 -18.125 -13.125 -23.75
58058 -18.125 -13.75 -23.75
60523 -17.5 -13.75 -23.75
60676 -17.5 -13.125 -23.75
69763 -16.875 -13.125 -23.75
69916 -16.875 -13.75 -23.75
72381 -16.25 -13.75 -23.75
72534 -16.25 -13.125 -23.75
81621 -15.625 -13.125 -23.75
81774 -15.625 -13.75 -23.75
84239 -15 -13.75 -23.75
84392 -15 -13.125 -23.75
93479 -14.375 -13.125 -23.75
93632 -14.375 -13.75 -23.75
96097 -13.75 -13.75 -23.75
96250 -13.75 -13.125 -23.75
105337 -13.125 -13.125 -23.75
105490 -13.125 -13.75 -23.75
107955 -12.5 -13.75 -23.75
108108 -12.5 -13.125 -23.75
117195 -11.875 -13.125 -23.75
117348 -11.875 -13.75 -23.75
119813 -11.25 -13.75 -23.75
119966 -11.25 -13.125 -23.75
129053 -10.625 -13.125 -23.75
129206 -10.625 -13.75 -23.75
131671 -10 -13.75 -23.75
131824 -10 -13.125 -23.75
140911 -9.375 -13.125 -23.75
141064 -9.375 -13.75 -23.75
143529 -8.75 -13.75 -23.75
143682 -8.75 -13.125 -23.75
1387 -23.75 -12.5 -23.75
1540 -23.75 -11.875 -23.75
1541 -23.75 -11.25 -23.75
10318 -23.125 -11.25 -23.75
10319 -23.125 -11.875 -23.75
10472 -23.125 -12.5 -23.75
13245 -22.5 -12.5 -23.75
13398 -22.5 -11.875 -23.75
13399 -22.5 -11.25 -23.75
22176 -21.875 -11.25 -23.75
22177 -21.875 -11.875 -23.75
22330 -21.875 -12.5 -23.75
25103 -21.25 -12.5 -23.75
25256 -21.25 -11.875 -23.75
25257 -21.25 -11.25 -23.75
34034 -20.625 -11.25 -23.75
34035 -20.625 -11.875 -23.75
34188 -20.625 -12.5 -23.75
36961 -20 -12.5 -23.75
37114 -20 -11.875 -23.75
37115 -20 -11.25 -23.75
45892 -19.375 -11.25 -23.75
45893 -19.375 -11.875 -23.75
46046 -19.375 -12.5 -23.75
48819 -18.75 -12.5 -23.75
48972 -18.75 -11.875 -23.75
48973 -18.75 -11.25 -23.75
57750 -18.125 -11.25 -23.75
57751 -18.125 -11.875 -23.75
57904 -18.125 -12.5 -23.75
60677 -17.5 -12.5 -23.75
60830 -17.5 -11.875 -23.75
60831 -17.5 -11.25 -23.75
69608 -16.875 -11.25 -23.75
69609 -16.875 -11.875 -23.75
69762 -16.875 -12.5 -23.75
72535 -16.25 -12.5 -23.75
72688 -16.25 -11.875 -23.75
72689 -16.25 -11.25 -23.75
81466 -15.625 -11.25 -23.75
81467 -15.625 -11.875 -23.75
81620 -15.625 -12.5 -23.75
84393 -15 -12.5 -23.75
84546 -15 -11.875 -23.75
84547 -15 -11.25 -23.75
93324 -14.375 -11.25 -23.75
93325 -14.375 -11.875 -23.75
93478 -14.375 -12.5 -23.75
96251 -13.75 -12.5 -23.75
96404 -13.75 -11.875 -23.75
96405 -13.75 -11.25 -23.75
105182 -13.125 -11.25 -23.75
105183 -13.125 -11.875 -23.75
105336 -13.125 -12.5 -23.75
108109 -12.5 -12.5 -23.75
108262 -12.5 -11.875 -23.75
108263 -12.5 -11.25 -23.75
117040 -11.875 -11.25 -23.75
117041 -11.875 -11.875 -23.75
117194 -11.875 -12.5 -23.75
119967 -11.25 -12.5 -23.75
120120 -11.25 -11.875 -23.75
120121 -11.25 -11.25 -23.75
128898 -10.625 -11.25 -23.75
128899 -10.625 -11.875 -23.75
129052 -10.625 -12.5 -23.75
131825 -10 -12.5 -23.75
131978 -10 -11.875 -23.75
131979 -10 -11.25 -23.75
140756 -9.375 -11.25 -23.75
140757 -9.375 -11.875 -23.75
140910 -9.375 -12.5 -23.75
143683 -8.75 -12.5 -23.75
143836 -8.75 -11.875 -23.75
143837 -8.75 -11.25 -23.75
1694 -23.75 -10.625 -23.75
1695 -23.75 -10 -23.75
10164 -23.125 -10 -23.75
10165 -23.125 -10.625 -23.75
13552 -22.5 -10.625 -23.75
13553 -22.5 -10 -23.75
22022 -21.875 -10 -23.75
22023 -21.875 -10.625 -23.75
25410 -21.25 -10.625 -23.75
25411 -21.25 -10 -23.75
33880 -20.625 -10 -23.75
33881 -20.625 -10.625 -23.75
37268 -20 -10.625 -23.75
37269 -20 -10 -23.75
45738 -19.375 -10 -23.75
45739 -19.375 -10.625 -23.75
49126 -18.75 -10.625 -23.75
49127 -18.75 -10 -23.75
57596 -18.125 -10 -23.75
57597 -18.125 -10.625 -23.75
60984 -17.5 -10.625 -23.75
60985 -17.5 -10 -23.75
69454 -16.875 -10 -23.75
69455 -16.875 -10.625 -23.75
72842 -16.25 -10.625 -23.75
72843 -16.25 -10 -23.75
81312 -15.625 -10 -23.75
81313 -15.625 -10.625 -23.75
84700 -15 -10.625 -23.75
84701 -15 -10 -23.75
93170 -14.375 -10 -23.75
93171 -14.375 -10.625 -23.75
96558 -13.75 -10.625 -23.75
96559 -13.75 -10 -23.75
105028 -13.125 -10 -23.75
105029 -13.125 -10.625 -23.75
108416 -12.5 -10.625 -23.75
108417 -12.5 -10 -23.75
116886 -11.875 -10 -23.75
116887 -11.875 -10.625 -23.75
120274 -11.25 -10.625 -23.75
120275 -11.25 -10 -23.75
128744 -10.625 -10 -23.75
128745 -10.625 -10.625 -23.75
132132 -10 -10.625 -23.75
132133 -10 -10 -23.75
140602 -9.375 -10 -23.75
140603 -9.375 -10.625 -23.75
143990 -8.75 -10.625 -23.75
143991 -8.75 -10 -23.75
1848 -23.75 -9.375 -23.75
1849 -23.75 -8.75 -23.75
2002 -23.75 -8.125 -23.75
9857 -23.125 -8.125 -23.75
10010 -23.125 -8.75 -23.75
10011 -23.125 -9.375 -23.75
13706 -22.5 -9.375 -23.75
13707 -22.5 -8.75 -23.75
13860 -22.5 -8.125 -23.75
21715 -21.875 -8.125 -23.75
21868 -21.875 -8.75 -23.75
21869 -21.875 -9.375 -23.75
25564 -21.25 -9.375 -23.75
25565 -21.25 -8.75 -23.75
25718 -21.25 -8.125 -23.75
33573 -20.625 -8.125 -23.75
33726 -20.625 -8.75 -23.75
33727 -20.625 -9.375 -23.75
37422 -20 -9.375 -23.75
37423 -20 -8.75 -23.75
37576 -20 -8.125 -23.75
45431 -19.375 -8.125 -23.75
45584 -19.375 -8.75 -23.75
45585 -19.375 -9.375 -23.75
49280 -18.75 -9.375 -23.75
49281 -18.75 -8.75 -23.75
49434 -18.75 -8.125 -23.75
57289 -18.125 -8.125 -23.75
57442 -18.125 -8.75 -23.75
57443 -18.125 -9.375 -23.75
61138 -17.5 -9.375 -23.75
61139 -17.5 -8.75 -23.75
61292 -17.5 -8.125 -23.75
69147 -16.875 -8.125 -23.75
69300 -16.875 -8.75 -23.75
69301 -16.875 -9.375 -23.75
72996 -16.25 -9.375 -23.75
72997 -16.25 -8.75 -23.75
73150 -16.25 -8.125 -23.75
81005 -15.625 -8.125 -23.75
81158 -15.625 -8.75 -23.75
81159 -15.625 -9.375 -23.75
84854 -15 -9.375 -23.75
84855 -15 -8.75 -23.75
85008 -15 -8.125 -23.75
92863 -14.375 -8.125 -23.75
93016 -14.375 -8.75 -23.75
93017 -14.375 -9.375 -23.75
96712 -13.75 -9.375 -23.75
96713 -13.75 -8.75 -23.75
96866 -13.75 -8.125 -23.75
104721 -13.125 -8.125 -23.75
104874 -13.125 -8.75 -23.75
104875 -13.125 -9.375 -23.75
108570 -12.5 -9.375 -23.75
108571 -12.5 -8.75 -23.75
108724 -12.5 -8.125 -23.75
116579 -11.875 -8.125 -23.75
116732 -11.875 -8.75 -23.75
116733 -11.875 -9.375 -23.75
120428 -11.25 -9.375 -23.75
120429 -11.25 -8.75 -23.75
120582 -11.25 -8.125 -23.75
128437 -10.625 -8.125 -23.75
128590 -10.625 -8.75 -23.75
128591 -10.625 -9.375 -23.75
132286 -10 -9.375 -23.75
132287 -10 -8.75 -23.75
132440 -10 -8.125 -23.75
140295 -9.375 -8.125 -23.75
140448 -9.375 -8.75 -23.75
140449 -9.375 -9.375 -23.75
144144 -8.75 -9.375 -23.75
144145 -8.75 -8.75 -23.75
144298 -8.75 -8.125 -23.75
2003 -23.75 -7.5 -23.75
2156 -23.75 -6.875 -23.75
9703 -23.125 -6.875 -23.75
9856 -23.125 -7.5 -23.75
13861 -22.5 -7.5 -23.75
14014 -22.5 -6.875 -23.75
21561 -21.875 -6.875 -23.75
21714 -21.875 -7.5 -23.75
25719 -21.25 -7.5 -23.75
25872 -21.25 -6.875 -23.75
33419 -20.625 -6.875 -23.75
33572 -20.625 -7.5 -23.75
37577 -20 -7.5 -23.75
37730 -20 -6.875 -23.75
45277 -19.375 -6.875 -23.75
45430 -19.375 -7.5 -23.75
49435 -18.75 -7.5 -23.75
49588 -18.75 -6.875 -23.75
57135 -18.125 -6.875 -23.75
57288 -18.125 -7.5 -23.75
61293 -17.5 -7.5 -23.75
61446 -17.5 -6.875 -23.75
68993 -16.875 -6.875 -23.75
69146 -16.875 -7.5 -23.75
73151 -16.25 -7.5 -23.75
73304 -16.25 -6.875 -23.75
80851 -15.625 -6.875 -23.75
81004 -15.625 -7.5 -23.75
85009 -15 -7.5 -23.75
85162 -15 -6.875 -23.75
92709 -14.375 -6.875 -23.75
92862 -14.375 -7.5 -23.75
96867 -13.75 -7.5 -23.75
97020 -13.75 -6.875 -23.75
104567 -13.125 -6.875 -23.75
104720 -13.125 -7.5 -23.75
108725 -12.5 -7.5 -23.75
108878 -12.5 -6.875 -23.75
116425 -11.875 -6.875 -23.75
116578 -11.875 -7.5 -23.75
120583 -11.25 -7.5 -23.75
120736 -11.25 -6.875 -23.75
128283 -10.625 -6.875 -23.75
128436 -10.625 -7.5 -23.75
132441 -10 -7.5 -23.75
132594 -10 -6.875 -23.75
140141 -9.375 -6.875 -23.75
140294 -9.375 -7.5 -23.75
144299 -8.75 -7.5 -23.75
144452 -8.75 -6.875 -23.75
2157 -23.75 -6.25 -23.75
2310 -23.75 -5.625 -23.75
2311 -23.75 -5 -23.75
9548 -23.125 -5 -23.75
9549 -23.125 -5.625 -23.75
9702 -23.125 -6.25 -23.75
14015 -22.5 -6.25 -23.75
14168 -22.5 -5.625 -23.75
14169 -22.5 -5 -23.75
21406 -21.875 -5 -23.75
21407 -21.875 -5.625 -23.75
21560 -21.875 -6.25 -23.75
25873 -21.25 -6.25 -23.75
26026 -21.25 -5.625 -23.75
26027 -21.25 -5 -23.75
33264 -20.625 -5 -23.75
33265 -20.625 -5.625 -23.75
33418 -20.625 -6.25 -23.75
37731 -20 -6.25 -23.75
37884 -20 -5.625 -23.75
37885 -20 -5 -23.75
45122 -19.375 -5 -23.75
45123 -19.375 -5.625 -23.75
45276 -19.375 -6.25 -23.75
49589 -18.75 -6.25 -23.75
49742 -18.75 -5.625 -23.75
49743 -18.75 -5 -23.75
56980 -18.125 -5 -23.75
56981 -18.125 -5.625 -23.75
57134 -18.125 -6.25 -23.75
61447 -17.5 -6.25 -23.75
61600 -17.5 -5.625 -23.75
61601 -17.5 -5 -23.75
68838 -16.875 -5 -23.75
68839 -16.875 -5.625 -23.75
68992 -16.875 -6.25 -23.75
73305 -16.25 -6.25 -23.75
73458 -16.25 -5.625 -23.75
73459 -16.25 -5 -23.75
80696 -15.625 -5 -23.75
80697 -15.625 -5.625 -23.75
80850 -15.625 -6.25 -23.75
85163 -15 -6.25 -23.75
85316 -15 -5.625 -23.75
85317 -15 -5 -23.75
92554 -14.375 -5 -23.75
92555 -14.375 -5.625 -23.75
92708 -14.375 -6.25 -23.75
97021 -13.75 -6.25 -23.75
97174 -13.75 -5.625 -23.75
97175 -13.75 -5 -23.75
104412 -13.125 -5 -23.75
104413 -13.125 -5.625 -23.75
104566 -13.125 -6.25 -23.75
108879 -12.5 -6.25 -23.75
109032 -12.5 -5.625 -23.75
109033 -12.5 -5 -23.75
116270 -11.875 -5 -23.75
116271 -11.875 -5.625 -23.75
116424 -11.875 -6.25 -23.75
120737 -11.25 -6.25 -23.75
120890 -11.25 -5.625 -23.75
120891 -11.25 -5 -23.75
128128 -10.625 -5 -23.75
128129 -10.625 -5.625 -23.75
128282 -10.625 -6.25 -23.75
132595 -10 -6.25 -23.75
132748 -10 -5.625 -23.75
132749 -10 -5 -23.75
139986 -9.375 -5 -23.75
139987 -9.375 -5.625 -23.75
140140 -9.375 -6.25 -23.75
144453 -8.75 -6.25 -23.75
144606 -8.75 -5.625 -23.75
144607 -8.75 -5 -23.75
2464 -23.75 -4.375 -23.75
2465 -23.75 -3.75 -23.75
9394 -23.125 -3.75 -23.75
9395 -23.125 -4.375 -23.75
14322 -22.5 -4.375 -23.75
14323 -22.5 -3.75 -23.75
21252 -21.875 -3.75 -23.75
21253 -21.875 -4.375 -23.75
26180 -21.25 -4.375 -23.75
26181 -21.25 -3.75 -23.75
33110 -20.625 -3.75 -23.75
33111 -20.625 -4.375 -23.75
38038 -20 -4.375 -23.75
38039 -20 -3.75 -23.75
44968 -19.375 -3.75 -23.75
44969 -19.375 -4.375 -23.75
49896 -18.75 -4.375 -23.75
49897 -18.75 -3.75 -23.75
56826 -18.125 -3.75 -23.75
56827 -18.125 -4.375 -23.75
61754 -17.5 -4.375 -23.75
61755 -17.5 -3.75 -23.75
68684 -16.875 -3.75 -23.75
68685 -16.875 -4.375 -23.75
73612 -16.25 -4.375 -23.75
73613 -16.25 -3.75 -23.75
80542 -15.625 -3.75 -23.75
80543 -15.625 -4.375 -23.75
85470 -15 -4.375 -23.75
85471 -15 -3.75 -23.75
92400 -14.375 -3.75 -23.75
92401 -14.375 -4.375 -23.75
97328 -13.75 -4.375 -23.75
97329 -13.75 -3.75 -23.75
104258 -13.125 -3.75 -23.75
104259 -13.125 -4.375 -23.75
109186 -12.5 -4.375 -23.75
109187 -12.5 -3.75 -23.75
116116 -11.875 -3.75 -23.75
116117 -11.875 -4.375 -23.75
121044 -11.25 -4.375 -23.75
121045 -11.25 -3.75 -23.75
127974 -10.625 -3.75 -23.75
127975 -10.625 -4.375 -23.75
132902 -10 -4.375 -23.75
132903 -10 -3.75 -23.75
139832 -9.375 -3.75 -23.75
139833 -9.375 -4.375 -23.75
144760 -8.75 -4.375 -23.75
144761 -8.75 -3.75 -23.75
2618 -23.75 -3.125 -23.75
2619 -23.75 -2.5 -23.75
2772 -23.75 -1.875 -23.75
9087 -23.125 -1.875 -23.75
9240 -23.125 -2.5 -23.75
9241 -23.125 -3.125 -23.75
14476 -22.5 -3.125 -23.75
14477 -22.5 -2.5 -23.75
14630 -22.5 -1.875 -23.75
20945 -21.875 -1.875 -23.75
21098 -21.875 -2.5 -23.75
21099 -21.875 -3.125 -23.75
26334 -21.25 -3.125 -23.75
26335 -21.25 -2.5 -23.75
26488 -21.25 -1.875 -23.75
32803 -20.625 -1.875 -23.75
32956 -20.625 -2.5 -23.75
32957 -20.625 -3.125 -23.75
38192 -20 -3.125 -23.75
38193 -20 -2.5 -23.75
38346 -20 -1.875 -23.75
44661 -19.375 -1.875 -23.75
44814 -19.375 -2.5 -23.75
44815 -19.375 -3.125 -23.75
50050 -18.75 -3.125 -23.75
50051 -18.75 -2.5 -23.75
50204 -18.75 -1.875 -23.75
56519 -18.125 -1.875 -23.75
56672 -18.125 -2.5 -23.75
56673 -18.125 -3.125 -23.75
61908 -17.5 -3.125 -23.75
61909 -17.5 -2.5 -23.75
62062 -17.5 -1.875 -23.75
68377 -16.875 -1.875 -23.75
68530 -16.875 -2.5 -23.75
68531 -16.875 -3.125 -23.75
73766 -16.25 -3.125 -23.75
73767 -16.25 -2.5 -23.75
73920 -16.25 -1.875 -23.75
80235 -15.625 -1.875 -23.75
80388 -15.625 -2.5 -23.75
80389 -15.625 -3.125 -23.75
85624 -15 -3.125 -23.75
85625 -15 -2.5 -23.75
85778 -15 -1.875 -23.75
92093 -14.375 -1.875 -23.75
92246 -14.375 -2.5 -23.75
92247 -14.375 -3.125 -23.75
97482 -13.75 -3.125 -23.75
97483 -13.75 -2.5 -23.75
97636 -13.75 -1.875 -23.75
103951 -13.125 -1.875 -23.75
104104 -13.125 -2.5 -23.75
104105 -13.125 -3.125 -23.75
109340 -12.5 -3.125 -23.75
109341 -12.5 -2.5 -23.75
109494 -12.5 -1.875 -23.75
115809 -11.875 -1.875 -23.75
115962 -11.875 -2.5 -23.75
115963 -11.875 -3.125 -23.75
121198 -11.25 -3.125 -23.75
121199 -11.25 -2.5 -23.75
121352 -11.25 -1.875 -23.75
127667 -10.625 -1.875 -23.75
127820 -10.625 -2.5 -23.75
127821 -10.625 -3.125 -23.75
133056 -10 -3.125 -23.75
133057 -10 -2.5 -23.75
133210 -10 -1.875 -23.75
139525 -9.375 -1.875 -23.75
139678 -9.375 -2.5 -23.75
139679 -9.375 -3.125 -23.75
144914 -8.75 -3.125 -23.75
144915 -8.75 -2.5 -23.75
145068 -8.75 -1.875 -23.75
2773 -23.75 -1.25 -23.75
2926 -23.75 -0.625 -23.75
8933 -23.125 -0.625 -23.75
9086 -23.125 -1.25 -23.75
14631 -22.5 -1.25 -23.75
14784 -22.5 -0.625 -23.75
20791 -21.875 -0.625 -23.75
20944 -21.875 -1.25 -23.75
26489 -21.25 -1.25 -23.75
26642 -21.25 -0.625 -23.75
32649 -20.625 -0.625 -23.75
32802 -20.625 -1.25 -23.75
38347 -20 -1.25 -23.75
38500 -20 -0.625 -23.75
44507 -19.375 -0.625 -23.75
44660 -19.375 -1.25 -23.75
50205 -18.75 -1.25 -23.75
50358 -18.75 -0.625 -23.75
56365 -18.125 -0.625 -23.75
56518 -18.125 -1.25 -23.75
62063 -17.5 -1.25 -23.75
62216 -17.5 -0.625 -23.75
68223 -16.875 -0.625 -23.75
68376 -16.875 -1.25 -23.75
73921 -16.25 -1.25 -23.75
74074 -16.25 -0.625 -23.75
80081 -15.625 -0.625 -23.75
80234 -15.625 -1.25 -23.75
85779 -15 -1.25 -23.75
85932 -15 -0.625 -23.75
91939 -14.375 -0.625 -23.75
92092 -14.375 -1.25 -23.75
97637 -13.75 -1.25 -23.75
97790 -13.75 -0.625 -23.75
103797 -13.125 -0.625 -23.75
103950 -13.125 -1.25 -23.75
109495 -12.5 -1.25 -23.75
109648 -12.5 -0.625 -23.75
115655 -11.875 -0.625 -23.75
115808 -11.875 -1.25 -23.75
121353 -11.25 -1.25 -23.75
121506 -11.25 -0.625 -23.75
127513 -10.625 -0.625 -23.75
127666 -10.625 -1.25 -23.75
133211 -10 -1.25 -23.75
133364 -10 -0.625 -23.75
139371 -9.375 -0.625 -23.75
139524 -9.375 -1.25 -23.75
145069 -8.75 -1.25 -23.75
145222 -8.75 -0.625 -23.75
2927 -23.75 0 -23.75
3080 -23.75 0.625 -23.75
3081 -23.75 1.25 -23.75
8778 -23.125 1.25 -23.75
8779 -23.125 0.625 -23.75
8932 -23.125 0 -23.75
14785 -22.5 0 -23.75
14938 -22.5 0.625 -23.75
14939 -22.5 1.25 -23.75
20636 -21.875 1.25 -23.75
20637 -21.875 0.625 -23.75
20790 -21.875 0 -23.75
26643 -21.25 0 -23.75
26796 -21.25 0.625 -23.75
26797 -21.25 1.25 -23.75
32494 -20.625 1.25 -23.75
32495 -20.625 0.625 -23.75
32648 -20.625 0 -23.75
38501 -20 0 -23.75
38654 -20 0.625 -23.75
38655 -20 1.25 -23.75
44352 -19.375 1.25 -23.75
44353 -19.375 0.625 -23.75
44506 -19.375 0 -23.75
50359 -18.75 0 -23.75
50512 -18.75 0.625 -23.75
50513 -18.75 1.25 -23.75
56210 -18.125 1.25 -23.75
56211 -18.125 0.625 -23.75
56364 -18.125 0 -23.75
62217 -17.5 0 -23.75
62370 -17.5 0.625 -23.75
62371 -17.5 1.25 -23.75
68068 -16.875 1.25 -23.75
68069 -16.875 0.625 -23.75
68222 -16.875 0 -23.75
74075 -16.25 0 -23.75
74228 -16.25 0.625 -23.75
74229 -16.25 1.25 -23.75
79926 -15.625 1.25 -23.75
79927 -15.625 0.625 -23.75
80080 -15.625 0 -23.75
85933 -15 0 -23.75
86086 -15 0.625 -23.75
86087 -15 1.25 -23.75
91784 -14.375 1.25 -23.75
91785 -14.375 0.625 -23.75
91938 -14.375 0 -23.75
97791 -13.75 0 -23.75
97944 -13.75 0.625 -23.75
97945 -13.75 1.25 -23.75
103642 -13.125 1.25 -23.75
103643 -13.125 0.625 -23.75
103796 -13.125 0 -23.75
109649 -12.5 0 -23.75
109802 -12.5 0.625 -23.75
109803 -12.5 1.25 -23.75
115500 -11.875 1.25 -23.75
115501 -11.875 0.625 -23.75
115654 -11.875 0 -23.75
121507 -11.25 0 -23.75
121660 -11.25 0.625 -23.75
121661 -11.25 1.25 -23.75
127358 -10.625 1.25 -23.75
127359 -10.625 0.625 -23.75
127512 -10.625 0 -23.75
133365 -10 0 -23.75
133518 -10 0.625 -23.75
133519 -10 1.25 -23.75
139216 -9.375 1.25 -23.75
139217 -9.375 0.625 -23.75
139370 -9.375 0 -23.75
145223 -8.75 0 -23.75
145376 -8.75 0.625 -23.75
145377 -8.75 1.25 -23.75
3234 -23.75 1.875 -23.75
3235 -23.75 2.5 -23.75
8624 -23.125 2.5 -23.75
8625 -23.125 1.875 -23.75
15092 -22.5 1.875 -23.75
15093 -22.5 2.5 -23.75
20482 -21.875 2.5 -23.75
20483 -21.875 1.875 -23.75
26950 -21.25 1.875 -23.75
26951 -21.25 2.5 -23.75
32340 -20.625 2.5 -23.75
32341 -20.625 1.875 -23.75
38808 -20 1.875 -23.75
38809 -20 2.5 -23.75
44198 -19.375 2.5 -23.75
44199 -19.375 1.875 -23.75
50666 -18.75 1.875 -23.75
50667 -18.75 2.5 -23.75
56056 -18.125 2.5 -23.75
56057 -18.125 1.875 -23.75
62524 -17.5 1.875 -23.75
62525 -17.5 2.5 -23.75
67914 -16.875 2.5 -23.75
67915 -16.875 1.875 -23.75
74382 -16.25 1.875 -23.75
74383 -16.25 2.5 -23.75
79772 -15.625 2.5 -23.75
79773 -15.625 1.875 -23.75
86240 -15 1.875 -23.75
86241 -15 2.5 -23.75
91630 -14.375 2.5 -23.75
91631 -14.375 1.875 -23.75
98098 -13.75 1.875 -23.75
98099 -13.75 2.5 -23.75
103488 -13.125 2.5 -23.75
103489 -13.125 1.875 -23.75
109956 -12.5 1.875 -23.75
109957 -12.5 2.5 -23.75
115346 -11.875 2.5 -23.75
115347 -11.875 1.875 -23.75
121814 -11.25 1.875 -23.75
121815 -11.25 2.5 -23.75
127204 -10.625 2.5 -23.75
127205 -10.625 1.875 -23.75
133672 -10 1.875 -23.75
133673 -10 2.5 -23.75
139062 -9.375 2.5 -23.75
139063 -9.375 1.875 -23.75
145530 -8.75 1.875 -23.75
145531 -8.75 2.5 -23.75
3388 -23.75 3.125 -23.75
3389 -23.75 3.75 -23.75
3542 -23.75 4.375 -23.75
8317 -23.125 4.375 -23.75
8470 -23.125 3.75 -23.75
8471 -23.125 3.125 -23.75
15246 -22.5 3.125 -23.75
15247 -22.5 3.75 -23.75
15400 -22.5 4.375 -23.75
20175 -21.875 4.375 -23.75
20328 -21.875 3.75 -23.75
20329 -21.875 3.125 -23.75
27104 -21.25 3.125 -23.75
27105 -21.25 3.75 -23.75
27258 -21.25 4.375 -23.75
32033 -20.625 4.375 -23.75
32186 -20.625 3.75 -23.75
32187 -20.625 3.125 -23.75
38962 -20 3.125 -23.75
38963 -20 3.75 -23.75
39116 -20 4.375 -23.75
43891 -19.375 4.375 -23.75
44044 -19.375 3.75 -23.75
44045 -19.375 3.125 -23.75
50820 -18.75 3.125 -23.75
50821 -18.75 3.75 -23.75
50974 -18.75 4.375 -23.75
55749 -18.125 4.375 -23.75
55902 -18.125 3.75 -23.75
55903 -18.125 3.125 -23.75
62678 -17.5 3.125 -23.75
62679 -17.5 3.75 -23.75
62832 -17.5 4.375 -23.75
67607 -16.875 4.375 -23.75
67760 -16.875 3.75 -23.75
67761 -16.875 3.125 -23.75
74536 -16.25 3.125 -23.75
74537 -16.25 3.75 -23.75
74690 -16.25 4.375 -23.75
79465 -15.625 4.375 -23.75
79618 -15.625 3.75 -23.75
79619 -15.625 3.125 -23.75
86394 -15 3.125 -23.75
86395 -15 3.75 -23.75
86548 -15 4.375 -23.75
91323 -14.375 4.375 -23.75